----- GAMESS execution script 'rungms' -----
This job is running on host chemcompute-node-2.novalocal
under operating system Linux at Wed Dec 22 14:03:03 UTC 2021
SLURM has assigned the following compute nodes to this run:
chemcompute-node-2
Available scratch disk space (Kbyte units) at beginning of the job is
Filesystem     1K-blocks    Used Available Use% Mounted on
/dev/sda1      125817836 9032392 116785444   8% /
GAMESS temporary binary files will be written to /scratch/331103
GAMESS supplementary output files will be written to /data/slurm/369092
Copying input file 369092.inp to your run's scratch directory...
The generated host list is
chemcompute-node-2.novalocal

 Distributed Data Interface kickoff program.
 Initiating 1 compute processes on 1 nodes to run the following command:
 /data/gamess-2019R1-ddi/gamess.00.x 369092 

          ******************************************************
          *         GAMESS VERSION = 30 JUN 2019 (R1)          *
          *             FROM IOWA STATE UNIVERSITY             *
          * M.W.SCHMIDT, K.K.BALDRIDGE, J.A.BOATZ, S.T.ELBERT, *
          *   M.S.GORDON, J.H.JENSEN, S.KOSEKI, N.MATSUNAGA,   *
          *          K.A.NGUYEN, S.J.SU, T.L.WINDUS,           *
          *       TOGETHER WITH M.DUPUIS, J.A.MONTGOMERY       *
          *         J.COMPUT.CHEM.  14, 1347-1363(1993)        *
          **************** 64 BIT LINUX VERSION ****************

  SINCE 1993, STUDENTS AND POSTDOCS WORKING AT IOWA STATE UNIVERSITY
  AND ALSO IN THEIR VARIOUS JOBS AFTER LEAVING ISU HAVE MADE IMPORTANT
  CONTRIBUTIONS TO THE CODE:
     IVANA ADAMOVIC, CHRISTINE AIKENS, YURI ALEXEEV, POOJA ARORA,
     ANDREY ASADCHEV, ROB BELL, PRADIPTA BANDYOPADHYAY, JONATHAN BENTZ,
     COLLEEN BERTONI, BRETT BODE, KURT BRORSEN, CALEB CARLIN, GALINA CHABAN,
     WEI CHEN, CHEOL HO CHOI, PAUL DAY, ALBERT DEFUSCO, NUWAN DESILVA,
     TIM DUDLEY, DMITRI FEDOROV, ALEX FINDLATER, GRAHAM FLETCHER, 
     MARK FREITAG, KURT GLAESEMANN, ANASTASIA GUNINA,
     DAN KEMP, GRANT MERRILL, NORIYUKI MINEZAWA, JONATHAN MULLIN,
     TAKESHI NAGATA, SEAN NEDD, HEATHER NETZLOFF, BOSILJKA NJEGIC, RYAN OLSON,
     MIKE PAK, BUU PHAM,
     SPENCER PRUITT, LUKE ROSKOP, JIM SHOEMAKER, LYUDMILA SLIPCHENKO,
     TONY SMITH, SAROM SOK LEANG, JIE SONG, TETSUYA TAKETSUGU, SIMON WEBB,
     PENG XU, SOOHAENG YOO, FEDERICO ZAHARIEV

  ADDITIONAL CODE HAS BEEN PROVIDED BY COLLABORATORS IN OTHER GROUPS:
     IOWA STATE UNIVERSITY:
          JOE IVANIC, AARON WEST, LAIMUTIS BYTAUTAS, KLAUS RUEDENBERG
     UNIVERSITY OF TOKYO: KIMIHIKO HIRAO, TAKAHITO NAKAJIMA,
          TAKAO TSUNEDA, MUNEAKI KAMIYA, SUSUMU YANAGISAWA,
          KIYOSHI YAGI, MAHITO CHIBA, SEIKEN TOKURA, NAOAKI KAWAKAMI
     UNIVERSITY OF AARHUS: FRANK JENSEN
     UNIVERSITY OF IOWA: VISVALDAS KAIRYS, HUI LI
     NATIONAL INST. OF STANDARDS AND TECHNOLOGY: WALT STEVENS, DAVID GARMER
     UNIVERSITY OF PISA: BENEDETTA MENNUCCI, JACOPO TOMASI
     UNIVERSITY OF MEMPHIS: HENRY KURTZ, PRAKASHAN KORAMBATH
     UNIVERSITY OF ALBERTA: TOBY ZENG, MARIUSZ KLOBUKOWSKI
     UNIVERSITY OF NEW ENGLAND: MARK SPACKMAN
     MIE UNIVERSITY: HIROAKI UMEDA
     NAT. INST. OF ADVANCED INDUSTRIAL SCIENCE AND TECHNOLOGY: KAZUO KITAURA
     MICHIGAN STATE UNIVERSITY:
          KAROL KOWALSKI, MARTA WLOCH, JEFFREY GOUR, JESSE LUTZ,
          WEI LI, JUN SHEN, J. EMILIANO DEUSTUA, PIOTR PIECUCH
     UNIVERSITY OF MINNESOTA:
          YINAN SHU
     UNIVERSITY OF SILESIA: MONIKA MUSIAL, STANISLAW KUCHARSKI
     FACULTES UNIVERSITAIRES NOTRE-DAME DE LA PAIX:
          OLIVIER QUINET, BENOIT CHAMPAGNE
     UNIVERSITY OF CALIFORNIA - SANTA BARBARA: BERNARD KIRTMAN
     INSTITUTE FOR MOLECULAR SCIENCE:
          KAZUYA ISHIMURA, MICHIO KATOUDA, AND SHIGERU NAGASE
     UNIVERSITY OF NOTRE DAME: ANNA POMOGAEVA, DAN CHIPMAN
     KYUSHU UNIVERSITY:
          HARUYUKI NAKANO,
          FENG LONG GU, JACEK KORCHOWIEC, MARCIN MAKOWSKI, AND YURIKO AOKI,
          HIROTOSHI MORI AND EISAKU MIYOSHI
     PENNSYLVANIA STATE UNIVERSITY:
          TZVETELIN IORDANOV, CHET SWALINA, JONATHAN SKONE,
          SHARON HAMMES-SCHIFFER
     WASEDA UNIVERSITY:
          MASATO KOBAYASHI, TOMOKO AKAMA, TSUGUKI TOUMA,
          TAKESHI YOSHIKAWA, YASUHIRO IKABATA, JUNJI SEINO,
          YUYA NAKAJIMA, HIROMI NAKAI
     NANJING UNIVERSITY: SHUHUA LI
     UNIVERSITY OF NEBRASKA:
          PEIFENG SU, DEJUN SI, NANDUN THELLAMUREGE, YALI WANG, HUI LI
     UNIVERSITY OF ZURICH: ROBERTO PEVERATI, KIM BALDRIDGE
     N. COPERNICUS UNIVERSITY AND JACKSON STATE UNIVERSITY:
          MARIA BARYSZ
     UNIVERSITY OF COPENHAGEN: Jimmy Kromann, CASPER STEINMANN
     TOKYO INSTITUTE OF TECHNOLOGY: HIROYA NAKATA
     NAGOYA UNIVERSITY: YOSHIO NISHIMOTO, STEPHAN IRLE
     MOSCOW STATE UNIVERSITY: VLADIMIR MIRONOV
     A.N.NESMEYANOV INSTITUTE OF ORGANOELEMENT COMPOUNDS OF RUSSIAN ACADEMY OF SCIENCES:
          IGOR S. GERASIMOV

 EXECUTION OF GAMESS BEGUN Wed Dec 22 14:03:03 2021

            ECHO OF THE FIRST FEW INPUT CARDS -
 INPUT CARD>!   File created by the GAMESS Input Deck Generator Plugin for Avogadro         
 INPUT CARD> $BASIS GBASIS=STO NGAUSS=3 $END                                                
 INPUT CARD> $CONTRL SCFTYP=RHF RUNTYP=OPTIMIZE NZVAR=1 MULT=1 ICHARG=1 $END                
 INPUT CARD> $STATPT  HESS=calc ihrep=5 $END                                                
 INPUT CARD> $FORCE NVIB=2 $END                                                             
 INPUT CARD> $STATPT OPTTOL=0.0005 NSTEP=50 hssend=.t. $END                                 
 INPUT CARD> $ZMAT DLC=.T. AUTO=.T. NONVDW(1)=3,9 $END                                      
 INPUT CARD> $ZMAT IFZMAT(1)=1,3,9 fvalue(1)=1.50 $END                                      
 INPUT CARD>                                                                                
 INPUT CARD> $DATA                                                                          
 INPUT CARD>Title                                                                           
 INPUT CARD>C1                                                                              
 INPUT CARD>C     6.0     1.08280003     0.00675000    -0.03075000                          
 INPUT CARD>C     6.0     2.57947993    -0.06600000     0.05253000                          
 INPUT CARD>N     7.0     3.17040992    -0.85904002     0.87835997                          
 INPUT CARD>Cl    17.0     3.54503989     0.95052999    -1.00388002                         
 INPUT CARD>H     1.0     0.59873003    -0.68804997     0.68788999                          
 INPUT CARD>H     1.0     0.75892001    -0.26385000    -1.05719995                          
 INPUT CARD>H     1.0     0.74906999     1.04066002     0.19520999                          
 INPUT CARD>H     1.0     2.62172008    -1.46261001     1.51469004                          
 INPUT CARD>H     1.0     4.67446995    -1.37523997     0.82639003                          
 INPUT CARD> $END                                                                           
    1000000 WORDS OF MEMORY AVAILABLE

     BASIS OPTIONS
     -------------
     GBASIS=STO          IGAUSS=       3      POLAR=NONE    
     NDFUNC=       0     NFFUNC=       0     DIFFSP=       F
     NPFUNC=       0      DIFFS=       F     BASNAM=        


     RUN TITLE
     ---------
 Title                                                                           

 THE POINT GROUP OF THE MOLECULE IS C1      
 THE ORDER OF THE PRINCIPAL AXIS IS     0

 ATOM      ATOMIC                      COORDINATES (BOHR)
           CHARGE         X                   Y                   Z
 C           6.0     2.0461953562        0.0127556504       -0.0581090741
 C           6.0     4.8745102585       -0.1247219152        0.0992673061
 N           7.0     5.9912060176       -1.6233502503        1.6598596619
 CL         17.0     6.6991540076        1.7962412242       -1.8970581623
 H           1.0     1.1314356973       -1.3002259092        1.2999235908
 H           1.0     1.4341508655       -0.4986042019       -1.9978182197
 H           1.0     1.4155370267        1.9665622842        0.3688933912
 H           1.0     4.9543325677       -2.7639321458        2.8623491319
 H           1.0     8.8334673433       -2.5988267107        1.5616507157

          INTERNUCLEAR DISTANCES (ANGS.)
          ------------------------------

                1 C          2 C          3 N          4 CL         5 H     

   1 C       0.0000000    1.5007594 *  2.4360190 *  2.8107522 *  1.1106368 *
   2 C       1.5007594 *  0.0000000    1.2884510 *  1.7554604 *  2.1711745 *
   3 N       2.4360190 *  1.2884510 *  0.0000000    2.6377488 *  2.5843866 *
   4 CL      2.8107522 *  1.7554604 *  2.6377488 *  0.0000000    3.7719719  
   5 H       1.1106368 *  2.1711745 *  2.5843866 *  3.7719719    0.0000000  
   6 H       1.1098298 *  2.1412808 *  3.1489565    3.0397411    1.8030378 *
   7 H       1.1096863 *  2.1437011 *  3.1525293    3.0435814    1.8038220 *
   8 H       2.6297678 *  2.0224282 *  1.0345401 *  3.6081795    2.3186268 *
   9 H       3.9426740    2.5888128 *  1.5910248 *  3.1677605    4.1355856  

                6 H          7 H          8 H          9 H     

   1 C       1.1098298 *  1.1096863 *  2.6297678 *  3.9426740  
   2 C       2.1412808 *  2.1437011 *  2.0224282 *  2.5888128 *
   3 N       3.1489565    3.1525293    1.0345401 *  1.5910248 *
   4 CL      3.0397411    3.0435814    3.6081795    3.1677605  
   5 H       1.8030378 *  1.8038220 *  2.3186268 *  4.1355856  
   6 H       0.0000000    1.8084176 *  3.3943582    4.4849337  
   7 H       1.8084176 *  0.0000000    3.3932590    4.6522818  
   8 H       3.3943582    3.3932590    0.0000000    2.1668347 *
   9 H       4.4849337    4.6522818    2.1668347 *  0.0000000  

  * ... LESS THAN  3.000


     ATOMIC BASIS SET
     ----------------
 THE CONTRACTED PRIMITIVE FUNCTIONS HAVE BEEN UNNORMALIZED
 THE CONTRACTED BASIS FUNCTIONS ARE NOW NORMALIZED TO UNITY

  SHELL TYPE  PRIMITIVE        EXPONENT          CONTRACTION COEFFICIENT(S)

 C         

      1   S       1            71.6168373    0.154328967295
      1   S       2            13.0450963    0.535328142282
      1   S       3             3.5305122    0.444634542185

      2   L       4             2.9412494   -0.099967229187    0.155916274999
      2   L       5             0.6834831    0.399512826089    0.607683718598
      2   L       6             0.2222899    0.700115468880    0.391957393099

 C         

      3   S       7            71.6168373    0.154328967295
      3   S       8            13.0450963    0.535328142282
      3   S       9             3.5305122    0.444634542185

      4   L      10             2.9412494   -0.099967229187    0.155916274999
      4   L      11             0.6834831    0.399512826089    0.607683718598
      4   L      12             0.2222899    0.700115468880    0.391957393099

 N         

      5   S      13            99.1061690    0.154328967295
      5   S      14            18.0523124    0.535328142282
      5   S      15             4.8856602    0.444634542185

      6   L      16             3.7804559   -0.099967229187    0.155916274999
      6   L      17             0.8784966    0.399512826089    0.607683718598
      6   L      18             0.2857144    0.700115468880    0.391957393099

 CL        

      7   S      19           601.3456136    0.154328967295
      7   S      20           109.5358542    0.535328142282
      7   S      21            29.6446769    0.444634542185

      8   L      22            38.9604189   -0.099967229187    0.155916274999
      8   L      23             9.0535635    0.399512826089    0.607683718598
      8   L      24             2.9444998    0.700115468880    0.391957393099

      9   L      25             2.2112785   -0.219620369005    0.010587604289
      9   L      26             0.6169411    0.225595433605    0.595167005266
      9   L      27             0.2414666    0.900398426019    0.462001011973

 H         

     10   S      28             3.4252509    0.154328967295
     10   S      29             0.6239137    0.535328142282
     10   S      30             0.1688554    0.444634542185

 H         

     11   S      31             3.4252509    0.154328967295
     11   S      32             0.6239137    0.535328142282
     11   S      33             0.1688554    0.444634542185

 H         

     12   S      34             3.4252509    0.154328967295
     12   S      35             0.6239137    0.535328142282
     12   S      36             0.1688554    0.444634542185

 H         

     13   S      37             3.4252509    0.154328967295
     13   S      38             0.6239137    0.535328142282
     13   S      39             0.1688554    0.444634542185

 H         

     14   S      40             3.4252509    0.154328967295
     14   S      41             0.6239137    0.535328142282
     14   S      42             0.1688554    0.444634542185

 TOTAL NUMBER OF BASIS SET SHELLS             =   14
 NUMBER OF CARTESIAN GAUSSIAN BASIS FUNCTIONS =   29
 NUMBER OF ELECTRONS                          =   40
 CHARGE OF MOLECULE                           =    1
 SPIN MULTIPLICITY                            =    1
 NUMBER OF OCCUPIED ORBITALS (ALPHA)          =   20
 NUMBER OF OCCUPIED ORBITALS (BETA )          =   20
 TOTAL NUMBER OF ATOMS                        =    9
 THE NUCLEAR REPULSION ENERGY IS      156.0579600414

     $CONTRL OPTIONS
     ---------------
 SCFTYP=RHF          RUNTYP=OPTIMIZE     EXETYP=RUN     
 MPLEVL=       0     CITYP =NONE         CCTYP =NONE         VBTYP =NONE    
 DFTTYP=NONE         TDDFT =NONE    
 MULT  =       1     ICHARG=       1     NZVAR =       1     COORD =UNIQUE  
 PP    =NONE         RELWFN=NONE         LOCAL =NONE         NUMGRD=       F
 ISPHER=      -1     NOSYM =       0     MAXIT =      30     UNITS =ANGS    
 PLTORB=       F     MOLPLT=       F     AIMPAC=       F     FRIEND=        
 NPRINT=       7     IREST =       0     GEOM  =INPUT   
 NORMF =       0     NORMP =       0     ITOL  =      20     ICUT  =       9
 INTTYP=BEST         GRDTYP=BEST         QMTTOL= 1.0E-06

     $SYSTEM OPTIONS
     ---------------
  REPLICATED MEMORY=     1000000 WORDS (ON EVERY NODE).
 DISTRIBUTED MEMDDI=           0 MILLION WORDS IN AGGREGATE,
 MEMDDI DISTRIBUTED OVER   1 PROCESSORS IS           0 WORDS/PROCESSOR.
 TOTAL MEMORY REQUESTED ON EACH PROCESSOR=     1000000 WORDS.
 TIMLIM=      525600.00 MINUTES, OR     365.0 DAYS.
 PARALL= F  BALTYP=  DLB     KDIAG=    0  COREFL= F
 MXSEQ2=     300 MXSEQ3=     150  mem10=         0

          ----------------
          PROPERTIES INPUT
          ----------------

     MOMENTS            FIELD           POTENTIAL          DENSITY
 IEMOM =       1   IEFLD =       0   IEPOT =       0   IEDEN =       0
 WHERE =COMASS     WHERE =NUCLEI     WHERE =NUCLEI     WHERE =NUCLEI  
 OUTPUT=BOTH       OUTPUT=BOTH       OUTPUT=BOTH       OUTPUT=BOTH    
 IEMINT=       0   IEFINT=       0                     IEDINT=       0
                                                       MORB  =       0
          EXTRAPOLATION IN EFFECT
          SOSCF IN EFFECT
 ORBITAL PRINTING OPTION: NPREO=     1    29     2     1

     -------------------------------
     INTEGRAL TRANSFORMATION OPTIONS
     -------------------------------
     NWORD  =            0
     CUTOFF = 1.0E-09     MPTRAN =       0
     DIRTRF =       F     AOINTS =DUP     

          ----------------------
          INTEGRAL INPUT OPTIONS
          ----------------------
 NOPK  =       1 NORDER=       0 SCHWRZ=       T


 -----------------------------------------------
  STATISTICS ON AUTOMATIC COORDINATE GENERATION 
 -----------------------------------------------
  NUMBER OF USER SPECIFIED BONDS                             1
  NUMBER OF BONDS                                            8
  NUMBER OF ANGLES                                          12
  NUMBER OF TORSIONS                                        10
  NUMBER OF EXTRA COORD.                                     0
  NUMBER OF EXTRA COORD. FOR CONSTRAINTS                     0
  NUMBER OF CONSTRAINED COORD.                               1

  TOTAL NUMBER OF PRIMITIVES                                30
 -----------------------------------------------

   --- ENCODED Z MATRIX ---
 COORD  TYPE   I   J   K   L   M   N
    1      1    3   9
    2      1    1   5
    3      1    1   7
    4      1    1   2
    5      1    1   6
    6      1    2   4
    7      1    2   3
    8      1    3   8
    9      2    1   2   4
   10      2    1   2   3
   11      2    2   3   8
   12      2    2   1   5
   13      2    2   3   9
   14      2    2   1   6
   15      2    2   1   7
   16      2    3   2   4
   17      2    5   1   6
   18      2    5   1   7
   19      2    6   1   7
   20      2    8   3   9
   21      3    1   2   3   8
   22      3    1   2   3   9
   23      3    3   2   1   6
   24      3    3   2   1   7
   25      3    3   2   1   5
   26      3    4   2   3   9
   27      3    4   2   1   6
   28      3    4   2   3   8
   29      3    4   2   1   7
   30      3    4   2   1   5

          INDEP./SYM. INTERNAL COORDINATES
          --------------------------------
 CRD  1=   1.0000 (  1)
 CRD  2=  -0.1373 (  4)  0.3198 (  7) -0.6133 (  9)  0.1159 ( 10)  0.1527 ( 12)
           0.3237 ( 13) -0.1725 ( 15)  0.4974 ( 16) -0.2173 ( 20)
 CRD  3=  -0.5380 (  4) -0.3318 (  7) -0.1389 (  9) -0.3872 ( 13) -0.4081 ( 14)
           0.1496 ( 16)  0.1705 ( 17)  0.2088 ( 19)  0.2521 ( 20) -0.1687 ( 22)
           0.1032 ( 24)
 CRD  4=   0.1152 (  3)  0.1795 (  4)  0.2053 (  7) -0.4340 ( 14)  0.6450 ( 15)
           0.1213 ( 17) -0.1959 ( 18) -0.1245 ( 20) -0.1438 ( 21) -0.3092 ( 22)
           0.1574 ( 23)  0.1430 ( 24) -0.1478 ( 26) -0.1708 ( 30)
 CRD  5=   0.1874 (  2)  0.1866 (  4) -0.1120 (  5) -0.2746 (  7) -0.2256 (  8)
           0.1213 (  9) -0.3104 ( 11)  0.6248 ( 12)  0.2367 ( 13) -0.3180 ( 14)
          -0.1330 ( 15) -0.1338 ( 17) -0.2085 ( 18)  0.1653 ( 19)
 CRD  6=  -0.1543 (  3)  0.1855 (  6) -0.1165 ( 10)  0.1679 ( 11)  0.1528 ( 12)
          -0.1027 ( 13)  0.1236 ( 14) -0.1908 ( 15) -0.1724 ( 17) -0.3896 ( 21)
          -0.3552 ( 22) -0.1681 ( 23) -0.1701 ( 24) -0.2046 ( 25) -0.3510 ( 26)
          -0.1723 ( 27) -0.3854 ( 28) -0.1743 ( 29) -0.2088 ( 30)
 CRD  7=   0.1349 (  4)  0.3842 (  6)  0.1991 (  7)  0.2745 (  8) -0.2008 ( 10)
           0.1220 ( 11)  0.2040 ( 12) -0.2339 ( 13)  0.1148 ( 14) -0.1210 ( 15)
           0.1767 ( 16) -0.1738 ( 17)  0.1299 ( 21) -0.1587 ( 22)  0.2746 ( 23)
           0.2641 ( 24)  0.2630 ( 25) -0.1266 ( 26)  0.2428 ( 27)  0.1620 ( 28)
           0.2324 ( 29)  0.2312 ( 30)
 CRD  8=  -0.1166 (  5)  0.3858 (  6)  0.1383 (  7)  0.3200 (  8)  0.1107 (  9)
          -0.1726 ( 10)  0.2562 ( 11)  0.1200 ( 12) -0.1450 ( 13) -0.2141 ( 14)
          -0.1420 ( 18)  0.3881 ( 22) -0.1988 ( 23) -0.2209 ( 24) -0.1634 ( 25)
           0.3514 ( 26) -0.1623 ( 27) -0.1844 ( 29) -0.1269 ( 30)
 CRD  9=  -0.1605 (  2) -0.1052 (  3)  0.1477 (  4) -0.1019 (  5)  0.3211 (  8)
          -0.1729 (  9) -0.4715 ( 11) -0.1438 ( 13)  0.1574 ( 14)  0.1813 ( 15)
           0.1365 ( 16) -0.1078 ( 18) -0.1856 ( 19)  0.6115 ( 20)
 CRD 10=   0.4715 (  2)  0.4535 (  3)  0.1879 (  4)  0.4685 (  5)  0.1480 (  7)
           0.1472 (  8) -0.2146 ( 11) -0.1603 ( 12) -0.1663 ( 14) -0.1767 ( 15)
           0.1624 ( 17)  0.1823 ( 18)  0.1708 ( 19)  0.2104 ( 20)
 CRD 11=  -0.5946 (  2)  0.2990 (  3)  0.2914 (  5) -0.2071 ( 17) -0.1986 ( 18)
           0.4088 ( 19)  0.2319 ( 23) -0.2263 ( 24)  0.2324 ( 27) -0.2258 ( 29)
 CRD 12=   0.5101 (  3) -0.5195 (  5) -0.3497 ( 17)  0.3529 ( 18)  0.1238 ( 23)
           0.1276 ( 24) -0.2719 ( 25)  0.1021 ( 29) -0.2974 ( 30)
 CRD 13=   0.1037 (  2)  0.2306 (  3)  0.2083 (  4)  0.2753 (  5) -0.4257 (  7)
          -0.2861 (  8) -0.2710 (  9)  0.1955 ( 11) -0.2321 ( 13)  0.2117 ( 14)
           0.1460 ( 15)  0.3207 ( 16) -0.1263 ( 17) -0.1050 ( 18) -0.1947 ( 19)
           0.1654 ( 21) -0.1346 ( 27)  0.2549 ( 28) -0.1132 ( 29) -0.1159 ( 30)
 CRD 14=   0.2602 (  3) -0.2392 (  7)  0.1385 ( 11)  0.1613 ( 15)  0.1197 ( 16)
          -0.1732 ( 18) -0.2269 ( 21)  0.2885 ( 22)  0.2735 ( 27) -0.5673 ( 28)
           0.2848 ( 29)  0.3603 ( 30)
 CRD 15=  -0.2344 (  2)  0.6489 (  6) -0.5607 (  8)  0.1227 ( 10) -0.1461 ( 11)
          -0.1845 ( 12)  0.1569 ( 17)  0.1216 ( 18)  0.2280 ( 20)
 CRD 16=   0.2341 (  2)  0.1283 (  3) -0.6691 (  4)  0.2327 (  5)  0.1215 (  6)
           0.2234 (  7) -0.1395 (  8)  0.1003 (  9) -0.1047 ( 11)  0.1951 ( 12)
           0.2117 ( 14)  0.2199 ( 15) -0.2596 ( 17) -0.1872 ( 18) -0.1948 ( 19)
 CRD 17=   0.2268 (  2) -0.2199 (  5) -0.3870 (  6)  0.4694 (  7) -0.4468 (  8)
          -0.1827 ( 10)  0.1087 ( 11) -0.3182 ( 13)  0.1371 ( 16) -0.1429 ( 18)
           0.1669 ( 19)  0.1894 ( 20) -0.1832 ( 24) -0.1037 ( 29)
 CRD 18=  -0.4041 (  3)  0.1461 (  4)  0.3581 (  5) -0.1130 (  6) -0.1069 (  8)
           0.1221 ( 11) -0.1817 ( 14)  0.1034 ( 15) -0.2531 ( 17)  0.2781 ( 18)
          -0.1325 ( 21)  0.2722 ( 22)  0.1902 ( 23)  0.2040 ( 24) -0.2299 ( 25)
           0.2830 ( 26)  0.1796 ( 27) -0.1217 ( 28)  0.1933 ( 29) -0.2405 ( 30)
 CRD 19=   0.2673 (  2) -0.1454 (  3) -0.2077 (  5)  0.1023 (  6) -0.2143 (  7)
          -0.1581 ( 10) -0.3000 ( 12)  0.1902 ( 13)  0.1570 ( 14)  0.1983 ( 16)
           0.2402 ( 19) -0.3428 ( 21)  0.3702 ( 23)  0.2470 ( 25)  0.2894 ( 26)
          -0.3285 ( 29)
 CRD 20=   0.3293 (  2) -0.2094 (  3)  0.1565 (  6)  0.1078 (  8) -0.2495 (  9)
           0.4566 ( 10)  0.1595 ( 15) -0.2064 ( 16) -0.1896 ( 17)  0.2056 ( 19)
           0.2642 ( 21) -0.2952 ( 24) -0.2214 ( 25) -0.2356 ( 26)  0.3010 ( 27)
 CRD 21=   0.1152 (  3)  0.1498 (  4)  0.1175 (  7) -0.2152 (  9)  0.5289 ( 10)
           0.2506 ( 11)  0.2182 ( 12) -0.2229 ( 13) -0.1421 ( 15) -0.3144 ( 16)
          -0.1136 ( 18) -0.3023 ( 21)  0.1773 ( 24)  0.2742 ( 25)  0.2565 ( 26)
          -0.1902 ( 27)

 THE DETERMINANT OF THE G MATRIX IS 10**(   -10)


                     --------------------
                     INTERNAL COORDINATES
                     --------------------

                 - - ATOMS - -         COORDINATE      COORDINATE
 NO.   TYPE    I  J  K  L  M  N        (BOHR,RAD)       (ANG,DEG)
 ----------------------------------------------------------------
   1 STRETCH   3  9                     3.0066009       1.5910248
   2 STRETCH   1  5                     2.0987993       1.1106368
   3 STRETCH   1  7                     2.0970030       1.1096863
   4 STRETCH   1  2                     2.8360241       1.5007594
   5 STRETCH   1  6                     2.0972742       1.1098298
   6 STRETCH   2  4                     3.3173392       1.7554604
   7 STRETCH   2  3                     2.4348193       1.2884510
   8 STRETCH   3  8                     1.9549973       1.0345401
   9 BEND      1  2  4                  2.0795308     119.1483390
  10 BEND      1  2  3                  2.1209207     121.5198073
  11 BEND      2  3  8                  2.1060785     120.6694108
  12 BEND      2  1  5                  1.9481187     111.6189775
  13 BEND      2  3  9                  2.2297962     127.7579087
  14 BEND      2  1  6                  1.9076708     109.3014827
  15 BEND      2  1  7                  1.9111186     109.4990298
  16 BEND      3  2  4                  2.0827297     119.3316195
  17 BEND      5  1  6                  1.8951704     108.5852664
  18 BEND      5  1  7                  1.8965612     108.6649546
  19 BEND      6  1  7                  1.9046997     109.1312548
  20 BEND      8  3  9                  1.9094156     109.4014565
  21 TORSION   1  2  3  8              -0.0101472      -0.5813945
  22 TORSION   1  2  3  9               2.8069175     160.8245240
  23 TORSION   3  2  1  6              -2.0965350    -120.1226064
  24 TORSION   3  2  1  7               2.1010167     120.3793882
  25 TORSION   3  2  1  5               0.0002259       0.0129413
  26 TORSION   4  2  3  9              -0.3315760     -18.9979081
  27 TORSION   4  2  1  6               1.0419641      59.7001434
  28 TORSION   4  2  3  8               3.1345445     179.5961734
  29 TORSION   4  2  1  7              -1.0436696     -59.7978620
  30 TORSION   4  2  1  5               3.1387249     179.8356911

     ------------------------------------------
     THE POINT GROUP IS C1 , NAXIS= 0, ORDER= 1
     ------------------------------------------

     DIMENSIONS OF THE SYMMETRY SUBSPACES ARE
 A   =   29

 ..... DONE SETTING UP THE RUN .....
 STEP CPU TIME =     0.09 TOTAL CPU TIME =          0.1 (      0.0 MIN)
 TOTAL WALL CLOCK TIME=          0.1 SECONDS, CPU UTILIZATION IS    64.29%


          -----------------------------
          STATIONARY POINT LOCATION RUN
          -----------------------------


           ** GEOMETRY CONSTRAINTS ARE BEING APPLIED. **

          TRANSFORMING DISPLACEMENT FROM INTERNALS TO CARTESIANS
          THE ROOT MEAN SQUARE ERROR IN ITERATION   1 IS   0.00003928
          THE ROOT MEAN SQUARE ERROR IN ITERATION   2 IS   0.00000000
          THE ROOT MEAN SQUARE ERROR IN ITERATION   3 IS   0.00000000
 WARNING! THE RADIUS IN CARTESIANS IS    0.16772
 OBTAINING INITIAL HESSIAN, HESS=CALC    

     ---------------------------------
     HESSIAN MATRIX CONTROL PARAMETERS
     ---------------------------------
     METHOD=ANALYTIC   NVIB  =       2   VIBSIZ= 0.01000
     RDHESS=       F   PURIFY=       F   PRTIFC=       F
     VIBANL=       F   DECOMP=       F   PROJCT=       F
     SCLFAC= 1.00000   PRTSCN=       F   NPRT  =       0
     PULCOR=       F   NPUN  =       0   REDOVB=       T
     HSSTYP=GENERAL 
 Old integral subroutine is used

     ------------------------------
     CPHF RESPONSE SOLUTION OPTIONS
     ------------------------------
     POLAR  =       F     NWORD  =       0
     CPHF   =AO      

          ********************
          1 ELECTRON INTEGRALS
          ********************
 ...... END OF ONE-ELECTRON INTEGRALS ......
 STEP CPU TIME =     0.04 TOTAL CPU TIME =          0.1 (      0.0 MIN)
 TOTAL WALL CLOCK TIME=          0.2 SECONDS, CPU UTILIZATION IS    76.47%

          -------------
          GUESS OPTIONS
          -------------
          GUESS =HUCKEL            NORB  =       0          NORDER=       0
          MIX   =       F          PRTMO =       F          PUNMO =       F
          TOLZ  = 1.0E-08          TOLE  = 1.0E-05
          SYMDEN=       F          PURIFY=       F

 INITIAL GUESS ORBITALS GENERATED BY HUCKEL   ROUTINE.
 HUCKEL GUESS REQUIRES     15702 WORDS.

 SYMMETRIES FOR INITIAL GUESS ORBITALS FOLLOW.   BOTH SET(S).
    20 ORBITALS ARE OCCUPIED (    8 CORE ORBITALS).
     9=A       10=A       11=A       12=A       13=A       14=A       15=A   
    16=A       17=A       18=A       19=A       20=A       21=A       22=A   
    23=A       24=A       25=A       26=A       27=A       28=A       29=A   
 ...... END OF INITIAL ORBITAL SELECTION ......
 STEP CPU TIME =     0.02 TOTAL CPU TIME =          0.1 (      0.0 MIN)
 TOTAL WALL CLOCK TIME=          0.2 SECONDS, CPU UTILIZATION IS    78.95%

                    ----------------------
                    AO INTEGRAL TECHNOLOGY
                    ----------------------
     S,P,L SHELL ROTATED AXIS INTEGRALS, REPROGRAMMED BY
        KAZUYA ISHIMURA (IMS) AND JOSE SIERRA (SYNSTAR).
     S,P,D,L SHELL ROTATED AXIS INTEGRALS PROGRAMMED BY
        KAZUYA ISHIMURA (INSTITUTE FOR MOLECULAR SCIENCE).
     S,P,D,F,G SHELL TO TOTAL QUARTET ANGULAR MOMENTUM SUM 5,
        ERIC PROGRAM BY GRAHAM FLETCHER (ELORET AND NASA ADVANCED
        SUPERCOMPUTING DIVISION, AMES RESEARCH CENTER).
     S,P,D,F,G,L SHELL GENERAL RYS QUADRATURE PROGRAMMED BY
        MICHEL DUPUIS (PACIFIC NORTHWEST NATIONAL LABORATORY).

          --------------------
          2 ELECTRON INTEGRALS
          --------------------

 THE -PK- OPTION IS OFF, THE INTEGRALS ARE NOT IN SUPERMATRIX FORM.
 STORING   15000 INTEGRALS/RECORD ON DISK, USING 12 BYTES/INTEGRAL.
 TWO ELECTRON INTEGRAL EVALUATION REQUIRES   89461 WORDS OF MEMORY.
 SCHWARZ INEQUALITY OVERHEAD:       424 INTEGRALS, T=        0.00
 II,JST,KST,LST =  1  1  1  1 NREC =         1 INTLOC =    1
 II,JST,KST,LST =  2  1  1  1 NREC =         1 INTLOC =    2
 II,JST,KST,LST =  3  1  1  1 NREC =         1 INTLOC =   34
 II,JST,KST,LST =  4  1  1  1 NREC =         1 INTLOC =  139
 II,JST,KST,LST =  5  1  1  1 NREC =         1 INTLOC = 1354
 II,JST,KST,LST =  6  1  1  1 NREC =         1 INTLOC = 1951
 II,JST,KST,LST =  7  1  1  1 NREC =         1 INTLOC = 6844
 II,JST,KST,LST =  8  1  1  1 NREC =         1 INTLOC = 8458
 II,JST,KST,LST =  9  1  1  1 NREC =         2 INTLOC = 3553
 II,JST,KST,LST = 10  1  1  1 NREC =         3 INTLOC = 9386
 II,JST,KST,LST = 11  1  1  1 NREC =         4 INTLOC = 1727
 II,JST,KST,LST = 12  1  1  1 NREC =         4 INTLOC =10066
 II,JST,KST,LST = 13  1  1  1 NREC =         5 INTLOC = 4436
 II,JST,KST,LST = 14  1  1  1 NREC =         5 INTLOC =14912
 SCHWARZ INEQUALITY TEST SKIPPED         730 INTEGRAL BLOCKS.
 TOTAL NUMBER OF NONZERO TWO-ELECTRON INTEGRALS =               86556
          6 INTEGRAL RECORDS WERE STORED ON DISK FILE  8.
  ...... END OF TWO-ELECTRON INTEGRALS .....
 STEP CPU TIME =     0.02 TOTAL CPU TIME =          0.2 (      0.0 MIN)
 TOTAL WALL CLOCK TIME=          0.2 SECONDS, CPU UTILIZATION IS    77.27%

          --------------------------
                 RHF SCF CALCULATION
          --------------------------

     NUCLEAR ENERGY =       156.3204145684
     MAXIT =   30     NPUNCH=    2
     EXTRAP=T  DAMP=F  SHIFT=F  RSTRCT=F  DIIS=F  DEM=F  SOSCF=T
     DENSITY MATRIX CONV=  1.00E-05
     SOSCF WILL OPTIMIZE     180 ORBITAL ROTATIONS, SOGTOL=   0.250
     MEMORY REQUIRED FOR RHF ITERS=     37013 WORDS.

 ITER EX DEM     TOTAL ENERGY        E CHANGE  DENSITY CHANGE     ORB. GRAD
   1  0  0     -585.3967762027  -585.3967762027   0.547932796   0.000000000
          ---------------START SECOND ORDER SCF---------------
   2  1  0     -585.7018409685    -0.3050647657   0.115489952   0.056191052
   3  2  0     -585.7242879042    -0.0224469357   0.066522045   0.018468489
   4  3  0     -585.7285798662    -0.0042919619   0.010209140   0.003964193
   5  4  0     -585.7287486135    -0.0001687473   0.002351667   0.001077853
   6  5  0     -585.7287645545    -0.0000159410   0.000898672   0.000471602
   7  6  0     -585.7287661509    -0.0000015964   0.000267163   0.000067381
   8  7  0     -585.7287662449    -0.0000000940   0.000067755   0.000016881
   9  8  0     -585.7287662535    -0.0000000086   0.000021848   0.000005599
  10  9  0     -585.7287662545    -0.0000000010   0.000006853   0.000001586
  11 10  0     -585.7287662546    -0.0000000001   0.000001279   0.000000360

          -----------------
          DENSITY CONVERGED
          -----------------
     TIME TO FORM FOCK OPERATORS=       0.0 SECONDS (       0.0 SEC/ITER)
     TIME TO SOLVE SCF EQUATIONS=       0.0 SECONDS (       0.0 SEC/ITER)

 FINAL RHF ENERGY IS     -585.7287662546 AFTER  11 ITERATIONS

          ------------
          EIGENVECTORS
          ------------

                      1          2          3          4          5
                 -103.9225   -15.7234   -11.4738   -11.2992   -10.6082
                     A          A          A          A          A   
    1  C  1  S    0.000000  -0.000012  -0.000180   0.991978   0.000039
    2  C  1  S   -0.000014   0.000322  -0.005327   0.037450   0.000284
    3  C  1  X    0.000002   0.000204  -0.003924   0.000926  -0.000083
    4  C  1  Y   -0.000009  -0.000178   0.000384  -0.000026   0.000068
    5  C  1  Z    0.000009   0.000188  -0.000413   0.000000  -0.000073
    6  C  2  S   -0.000055   0.000502   0.992684   0.001132   0.001661
    7  C  2  S    0.000385  -0.007435   0.032456  -0.006294  -0.007925
    8  C  2  X    0.000206  -0.002340   0.000595   0.004610  -0.003915
    9  C  2  Y    0.000206   0.003493  -0.001345  -0.000128  -0.003921
   10  C  2  Z   -0.000214  -0.003601   0.001402   0.000167   0.004069
   11  N  3  S    0.000001   0.993610   0.000201  -0.000005  -0.000005
   12  N  3  S   -0.000018   0.030487  -0.006697   0.000277   0.000359
   13  N  3  X   -0.000017  -0.003493   0.001506  -0.000216   0.000175
   14  N  3  Y   -0.000012   0.001043  -0.002175  -0.000006   0.000156
   15  N  3  Z    0.000014  -0.001542   0.002242   0.000006  -0.000191
   16  CL 4  S    0.994496   0.000001   0.000096   0.000008  -0.376832
   17  CL 4  S    0.015770   0.000005  -0.000347  -0.000011   1.052800
   18  CL 4  X   -0.000068  -0.000006  -0.000218  -0.000004  -0.006096
   19  CL 4  Y   -0.000075   0.000013  -0.000260  -0.000001  -0.007037
   20  CL 4  Z    0.000076  -0.000011   0.000272   0.000001   0.007104
   21  CL 4  S   -0.001863   0.000158  -0.004150   0.000066   0.045628
   22  CL 4  X    0.000132   0.000031   0.002049  -0.000050  -0.003166
   23  CL 4  Y    0.000140  -0.000144   0.002367  -0.000020  -0.003426
   24  CL 4  Z   -0.000146   0.000139  -0.002464   0.000018   0.003533
   25  H  5  S    0.000005   0.000022   0.000010  -0.006648  -0.000130
   26  H  6  S    0.000012   0.000007  -0.000167  -0.006676  -0.000241
   27  H  7  S    0.000012   0.000007  -0.000169  -0.006662  -0.000237
   28  H  8  S    0.000003  -0.006237  -0.000387  -0.000114  -0.000079
   29  H  9  S    0.000015  -0.002629  -0.000110  -0.000007  -0.000304

                      6          7          8          9         10
                   -8.0511    -8.0449    -8.0445    -1.4880    -1.2830
                     A          A          A          A          A   
    1  C  1  S    0.000016   0.000000   0.000002  -0.036169  -0.045575
    2  C  1  S    0.000296   0.000023  -0.000742   0.091626   0.123481
    3  C  1  X    0.000039   0.000004  -0.000184   0.041647   0.033518
    4  C  1  Y    0.000137   0.000259   0.000324  -0.004417   0.010734
    5  C  1  Z   -0.000149   0.000266  -0.000320   0.004590  -0.011442
    6  C  2  S    0.001359   0.000009   0.000042  -0.146911  -0.065826
    7  C  2  S   -0.010977  -0.000074  -0.000298   0.361509   0.203457
    8  C  2  X   -0.005181   0.000061  -0.002984   0.064399   0.002998
    9  C  2  Y   -0.005218  -0.002362   0.001444  -0.079723   0.133343
   10  C  2  Z    0.005456  -0.002095  -0.001654   0.078821  -0.138538
   11  N  3  S   -0.000010   0.000004  -0.000023  -0.190227   0.094867
   12  N  3  S    0.000441  -0.000047   0.001020   0.621930  -0.337175
   13  N  3  X    0.000250   0.000003  -0.000630  -0.102773   0.047083
   14  N  3  Y    0.000247   0.000230   0.000201   0.064655   0.038956
   15  N  3  Z   -0.000279   0.000225  -0.000224  -0.078747  -0.032406
   16  CL 4  S    0.005178  -0.000019   0.000140   0.016535   0.071356
   17  CL 4  S   -0.014730   0.000053  -0.000397  -0.055692  -0.237158
   18  CL 4  X   -0.539616  -0.032436   0.828182   0.009657   0.025618
   19  CL 4  Y   -0.579586   0.720388  -0.350808   0.013288   0.025494
   20  CL 4  Z    0.590339   0.677592   0.412607  -0.013578  -0.025940
   21  CL 4  S    0.005888   0.000035   0.000018   0.160837   0.757643
   22  CL 4  X   -0.026293  -0.001344   0.033751  -0.026446  -0.072378
   23  CL 4  Y   -0.028194   0.029393  -0.014285  -0.035146  -0.074164
   24  CL 4  Z    0.028777   0.027693   0.016806   0.035832   0.075166
   25  H  5  S   -0.000115  -0.000008   0.000220   0.013377   0.015732
   26  H  6  S   -0.000156   0.000237   0.000274   0.010464   0.028001
   27  H  7  S   -0.000150  -0.000252   0.000254   0.010295   0.027511
   28  H  8  S   -0.000082   0.000002  -0.000135   0.089812  -0.093315
   29  H  9  S   -0.000202   0.000089  -0.000341   0.037996  -0.030463

                     11         12         13         14         15
                   -1.1807    -1.0077    -0.8698    -0.8360    -0.8029
                     A          A          A          A          A   
    1  C  1  S   -0.195494   0.055221  -0.065115  -0.010847  -0.002557
    2  C  1  S    0.554290  -0.170482   0.230697   0.038261   0.010017
    3  C  1  X    0.055659   0.084126  -0.328899  -0.124858  -0.020248
    4  C  1  Y   -0.007675  -0.006256   0.019236  -0.165767   0.333019
    5  C  1  Z    0.006157   0.008150  -0.035770   0.206870   0.262900
    6  C  2  S   -0.059521  -0.119858   0.074676   0.045694   0.000741
    7  C  2  S    0.184295   0.393709  -0.279976  -0.204310  -0.000595
    8  C  2  X   -0.245824   0.132539   0.331356  -0.002940   0.033278
    9  C  2  Y    0.003213  -0.084555  -0.063120  -0.244591   0.306039
   10  C  2  Z   -0.000766   0.087563   0.039493   0.300694   0.242552
   11  N  3  S    0.050667   0.054450  -0.039288   0.020479  -0.007897
   12  N  3  S   -0.188776  -0.243132   0.173508  -0.121544   0.036769
   13  N  3  X   -0.048098  -0.009455   0.354544  -0.343405   0.043186
   14  N  3  Y    0.013841   0.357352   0.123358   0.161411   0.284533
   15  N  3  Z   -0.008410  -0.355099  -0.184575  -0.078451   0.286633
   16  CL 4  S   -0.033098  -0.029251   0.002711   0.028462  -0.002640
   17  CL 4  S    0.109042   0.094376  -0.008667  -0.089349   0.008202
   18  CL 4  X    0.005075   0.009094  -0.036318  -0.075065   0.006166
   19  CL 4  Y   -0.006977   0.023188   0.009032  -0.053376  -0.037659
   20  CL 4  Z    0.006879  -0.024663  -0.005700   0.049480  -0.050184
   21  CL 4  S   -0.368689  -0.357255   0.034961   0.383688  -0.036729
   22  CL 4  X   -0.013960  -0.024746   0.121138   0.240702  -0.019555
   23  CL 4  Y    0.021982  -0.068919  -0.031599   0.167240   0.131158
   24  CL 4  Z   -0.021600   0.073626   0.020291  -0.153537   0.170631
   25  H  5  S    0.133431  -0.073423   0.149981   0.229339  -0.018781
   26  H  6  S    0.128670  -0.069480   0.164045  -0.066899  -0.231596
   27  H  7  S    0.126950  -0.068832   0.153877  -0.038115   0.274910
   28  H  8  S   -0.038771  -0.314247  -0.193383  -0.011971   0.006469
   29  H  9  S   -0.038758  -0.075577   0.191268  -0.217762  -0.018604

                     16         17         18         19         20
                   -0.7278    -0.7068    -0.6927    -0.6195    -0.6129
                     A          A          A          A          A   
    1  C  1  S    0.001124   0.004674  -0.008294  -0.012797   0.002479
    2  C  1  S   -0.004922  -0.013092   0.027304   0.049509  -0.009781
    3  C  1  X    0.076880  -0.166017   0.232352   0.143677  -0.029045
    4  C  1  Y   -0.299545  -0.317383  -0.177441   0.031166   0.009641
    5  C  1  Z    0.438337  -0.155557  -0.169452  -0.035968  -0.003148
    6  C  2  S   -0.021379  -0.007353   0.006874  -0.009930  -0.000387
    7  C  2  S    0.107681   0.042678  -0.036735   0.047448   0.000346
    8  C  2  X   -0.071763   0.234818  -0.298933  -0.098093   0.025587
    9  C  2  Y    0.087613   0.259601   0.062396  -0.003361  -0.050544
   10  C  2  Z   -0.125293   0.028969   0.241074   0.012642  -0.040652
   11  N  3  S    0.007387   0.010912  -0.025788   0.015979   0.007041
   12  N  3  S   -0.014979  -0.059890   0.138929  -0.075550  -0.036267
   13  N  3  X    0.288358  -0.130227   0.331271   0.031247  -0.072908
   14  N  3  Y   -0.132754   0.235380   0.287122  -0.071276  -0.307330
   15  N  3  Z    0.002947   0.356769   0.155377   0.056745  -0.299835
   16  CL 4  S   -0.006045  -0.011324   0.011405   0.000237  -0.000098
   17  CL 4  S    0.018587   0.034607  -0.034804  -0.000446   0.000240
   18  CL 4  X    0.017546   0.032224  -0.031175  -0.241585   0.012806
   19  CL 4  Y    0.033754   0.025829  -0.124651   0.088676  -0.184791
   20  CL 4  Z   -0.028517  -0.109779   0.032760  -0.109167  -0.179982
   21  CL 4  S   -0.086989  -0.165854   0.167845   0.007036  -0.002266
   22  CL 4  X   -0.054367  -0.102997   0.099672   0.867361  -0.045928
   23  CL 4  Y   -0.113437  -0.079420   0.426800  -0.320945   0.664708
   24  CL 4  Z    0.095055   0.373883  -0.102774   0.394385   0.646065
   25  H  5  S    0.371656   0.154709  -0.092551  -0.096593   0.002258
   26  H  6  S   -0.300983   0.227943   0.125783  -0.001341  -0.005655
   27  H  7  S   -0.181116  -0.242443  -0.227825  -0.005981   0.024777
   28  H  8  S   -0.040148   0.134816  -0.183978   0.032896   0.014257
   29  H  9  S    0.211075  -0.170299   0.224709   0.043359   0.005667

                     21         22         23         24         25
                   -0.0603    -0.0058     0.1068     0.3262     0.4195
                     A          A          A          A          A   
    1  C  1  S    0.014766   0.012676   0.030913  -0.054644  -0.028127
    2  C  1  S   -0.072268  -0.064919  -0.157262   0.319561   0.164357
    3  C  1  X   -0.088466  -0.074505  -0.158734   0.620614   0.340208
    4  C  1  Y    0.001462   0.000221   0.057829  -0.044870   0.571964
    5  C  1  Z   -0.020086  -0.008898  -0.063178   0.056323  -0.616726
    6  C  2  S   -0.005849  -0.001151  -0.148530   0.074948   0.098395
    7  C  2  S    0.022652   0.003340   0.793906  -0.463930  -0.647922
    8  C  2  X   -0.022293  -0.047274   0.400699   0.429503  -0.029961
    9  C  2  Y    0.362143  -0.576412   0.338610  -0.186187   0.238701
   10  C  2  Z    0.573241  -0.283093  -0.379776   0.201775  -0.251277
   11  N  3  S    0.066417   0.063993   0.070058   0.091527  -0.059680
   12  N  3  S   -0.368283  -0.361583  -0.427022  -0.645218   0.439669
   13  N  3  X   -0.379934  -0.331661  -0.027957   0.380832  -0.329711
   14  N  3  Y   -0.243874   0.399873   0.026871   0.329763   0.269988
   15  N  3  Z   -0.278469   0.348019   0.017159  -0.363551  -0.261882
   16  CL 4  S    0.002747   0.003683  -0.022327   0.003535   0.001165
   17  CL 4  S   -0.007708  -0.010274   0.062899  -0.009458  -0.003260
   18  CL 4  X    0.027263   0.030460  -0.121042   0.034907  -0.004260
   19  CL 4  Y    0.059135  -0.007271  -0.132735   0.010816   0.010078
   20  CL 4  Z    0.013837  -0.056979   0.135391  -0.010830  -0.010708
   21  CL 4  S    0.049116   0.066871  -0.401358   0.070149   0.022043
   22  CL 4  X   -0.105886  -0.119982   0.486927  -0.145213   0.015778
   23  CL 4  Y   -0.228291   0.027042   0.534045  -0.046867  -0.042547
   24  CL 4  Z   -0.053286   0.222731  -0.545238   0.047062   0.045141
   25  H  5  S   -0.029649  -0.040566   0.169835  -0.051895   0.847453
   26  H  6  S    0.177450  -0.096920  -0.045156   0.080197  -0.429662
   27  H  7  S   -0.103447   0.171907  -0.035767   0.073349  -0.402453
   28  H  8  S    0.053614   0.047900   0.364677   0.975278  -0.090327
   29  H  9  S    0.644281   0.674794   0.170054  -0.034418   0.091978

                     26         27         28         29
                    0.4730     0.4936     0.4996     0.6488
                     A          A          A          A   
    1  C  1  S    0.006911  -0.042365  -0.236380  -0.019794
    2  C  1  S   -0.043903   0.256193   1.491736   0.133206
    3  C  1  X    0.006888   0.788305  -0.310211   0.211349
    4  C  1  Y    0.794423  -0.296160  -0.003334   0.364153
    5  C  1  Z    0.743429   0.313824   0.047559  -0.378972
    6  C  2  S    0.000123   0.076640   0.030120  -0.086888
    7  C  2  S   -0.000707  -0.495706  -0.189019   0.637901
    8  C  2  X   -0.010871   0.768995   0.297199   0.575817
    9  C  2  Y   -0.160215   0.218087   0.041176  -0.642470
   10  C  2  Z   -0.156828  -0.230586  -0.052758   0.675693
   11  N  3  S   -0.000622  -0.055663  -0.003329   0.079546
   12  N  3  S    0.004865   0.401857   0.022767  -0.645535
   13  N  3  X   -0.002664  -0.490638  -0.113925   0.300971
   14  N  3  Y    0.054494  -0.197231  -0.006966  -0.649141
   15  N  3  Z    0.047666   0.230478   0.016643   0.664301
   16  CL 4  S    0.000037  -0.006056  -0.000897   0.001179
   17  CL 4  S   -0.000081   0.015615   0.001894  -0.002671
   18  CL 4  X   -0.000207  -0.016861   0.002549   0.025336
   19  CL 4  Y   -0.007984  -0.031039  -0.009772  -0.003564
   20  CL 4  Z   -0.008464   0.031890   0.009620   0.004176
   21  CL 4  S    0.000970  -0.127150  -0.023636   0.028546
   22  CL 4  X    0.000755   0.073718  -0.009195  -0.110737
   23  CL 4  Y    0.032279   0.135228   0.042089   0.015320
   24  CL 4  Z    0.034488  -0.139084  -0.041575  -0.017806
   25  H  5  S    0.037120  -0.123961  -0.775220   0.400706
   26  H  6  S    0.854098   0.289144  -0.672898  -0.199252
   27  H  7  S   -0.825751   0.291133  -0.723910  -0.198880
   28  H  8  S   -0.004062  -0.594428  -0.010535  -0.282325
   29  H  9  S    0.006477   0.116311   0.039383  -0.060513
 ...... END OF RHF CALCULATION ......
 STEP CPU TIME =     0.06 TOTAL CPU TIME =          0.2 (      0.0 MIN)
 TOTAL WALL CLOCK TIME=          0.3 SECONDS, CPU UTILIZATION IS    85.19%

     ----------------------------------------------------------------
     PROPERTY VALUES FOR THE RHF   SELF-CONSISTENT FIELD WAVEFUNCTION
     ----------------------------------------------------------------

          -----------------
          ENERGY COMPONENTS
          -----------------

         WAVEFUNCTION NORMALIZATION =       1.0000000000

                ONE ELECTRON ENERGY =   -1108.1074770176
                TWO ELECTRON ENERGY =     366.0582961946
           NUCLEAR REPULSION ENERGY =     156.3204145684
                                      ------------------
                       TOTAL ENERGY =    -585.7287662546

 ELECTRON-ELECTRON POTENTIAL ENERGY =     366.0582961946
  NUCLEUS-ELECTRON POTENTIAL ENERGY =   -1683.8872611321
   NUCLEUS-NUCLEUS POTENTIAL ENERGY =     156.3204145684
                                      ------------------
             TOTAL POTENTIAL ENERGY =   -1161.5085503690
               TOTAL KINETIC ENERGY =     575.7797841144
                 VIRIAL RATIO (V/T) =       2.0172791446

          ---------------------------------------
          MULLIKEN AND LOWDIN POPULATION ANALYSES
          ---------------------------------------

     ATOMIC MULLIKEN POPULATION IN EACH MOLECULAR ORBITAL

                      1          2          3          4          5

                  2.000000   2.000000   2.000000   2.000000   2.000000

    1            -0.000000   0.000003  -0.000784   2.003598   0.000000
    2             0.000007  -0.001412   2.002323  -0.000928  -0.001103
    3            -0.000000   2.002290  -0.001104   0.000001   0.000001
    4             1.999994   0.000001  -0.000424   0.000000   2.001103
    5             0.000000   0.000000   0.000000  -0.000887  -0.000000
    6             0.000000   0.000000  -0.000002  -0.000892  -0.000000
    7             0.000000   0.000000  -0.000002  -0.000891  -0.000000
    8             0.000000  -0.000769  -0.000007  -0.000000  -0.000000
    9             0.000000  -0.000113  -0.000001  -0.000000  -0.000000

                      6          7          8          9         10

                  2.000000   2.000000   2.000000   2.000000   2.000000

    1             0.000001   0.000000   0.000000   0.058570   0.064572
    2            -0.000823  -0.000039  -0.000046   0.620054   0.339257
    3             0.000001   0.000000   0.000000   1.124100   0.247124
    4             2.000821   2.000039   2.000046   0.097442   1.275163
    5            -0.000000  -0.000000  -0.000000   0.003072   0.001924
    6            -0.000000  -0.000000  -0.000000   0.001756   0.007247
    7            -0.000000  -0.000000  -0.000000   0.001709   0.007072
    8            -0.000000  -0.000000  -0.000000   0.078474   0.051716
    9            -0.000000  -0.000000  -0.000000   0.014824   0.005926

                     11         12         13         14         15

                  2.000000   2.000000   2.000000   2.000000   2.000000

    1             0.926840   0.101733   0.512626   0.302890   0.589777
    2             0.381667   0.332571   0.424376   0.458763   0.477337
    3             0.078206   0.889799   0.526056   0.416968   0.412200
    4             0.245499   0.223080   0.045612   0.484139   0.115529
    5             0.122485   0.027364   0.083093   0.171681   0.001007
    6             0.116708   0.023815   0.101185   0.014095   0.166083
    7             0.114547   0.023451   0.089461   0.004470   0.236870
    8             0.005552   0.352923   0.102876   0.000386   0.000102
    9             0.008496   0.025265   0.114716   0.146608   0.001097

                     16         17         18         19         20

                  2.000000   2.000000   2.000000   2.000000   2.000000

    1             0.824652   0.424824   0.311402   0.058199   0.002357
    2             0.065379   0.273683   0.329206   0.020027   0.007469
    3             0.220658   0.450312   0.490308   0.018825   0.385055
    4             0.067481   0.383248   0.477445   1.874378   1.603220
    5             0.362651   0.064166   0.023760   0.021341   0.000016
    6             0.247962   0.139257   0.038215   0.000016   0.000057
    7             0.090405   0.151484   0.137042   0.000131   0.001388
    8             0.001510   0.039592   0.069183   0.002275   0.000342
    9             0.119301   0.073433   0.123437   0.004807   0.000095

               ----- POPULATIONS IN EACH AO -----
                             MULLIKEN      LOWDIN
              1  C  1  S      1.99206     1.98530
              2  C  1  S      1.19764     1.02745
              3  C  1  X      0.82560     0.89264
              4  C  1  Y      1.08508     1.09385
              5  C  1  Z      1.08088     1.09038
              6  C  2  S      1.99371     1.98669
              7  C  2  S      1.18803     1.11806
              8  C  2  X      1.00424     1.03298
              9  C  2  Y      0.77848     0.81623
             10  C  2  Z      0.76331     0.80679
             11  N  3  S      1.99553     1.99170
             12  N  3  S      1.51643     1.33276
             13  N  3  X      1.21679     1.21720
             14  N  3  Y      1.27311     1.27921
             15  N  3  Z      1.25894     1.26912
             16  CL 4  S      1.99997     1.99989
             17  CL 4  S      1.99888     1.99883
             18  CL 4  X      1.99538     1.99146
             19  CL 4  Y      1.99435     1.98944
             20  CL 4  Z      1.99419     1.98920
             21  CL 4  S      1.95978     1.92251
             22  CL 4  X      1.69988     1.71203
             23  CL 4  Y      1.62973     1.64247
             24  CL 4  Z      1.62165     1.63512
             25  H  5  S      0.88167     0.92276
             26  H  6  S      0.85550     0.89982
             27  H  7  S      0.85714     0.90162
             28  H  8  S      0.70415     0.78706
             29  H  9  S      0.63789     0.66745

          ----- MULLIKEN ATOMIC OVERLAP POPULATIONS -----
          (OFF-DIAGONAL ELEMENTS NEED TO BE MULTIPLIED BY 2)

             1           2           3           4           5

    1    4.7365406
    2    0.3649536   4.7166670
    3   -0.0260636   0.4977688   6.2547370
    4   -0.0199341   0.2539735  -0.0254246  16.6862937
    5    0.3789193  -0.0198241  -0.0033973   0.0006383   0.5581468
    6    0.3749379  -0.0193367   0.0003464  -0.0010429  -0.0168597
    7    0.3751829  -0.0201710   0.0004654  -0.0008060  -0.0167425
    8   -0.0038874  -0.0333332   0.3355094   0.0012014   0.0007707
    9    0.0006111  -0.0129314   0.2268595  -0.0010847   0.0000209

             6           7           8           9

    6    0.5314983
    7   -0.0140496   0.5332061
    8    0.0000353   0.0000646   0.4191412
    9   -0.0000293  -0.0000123  -0.0153475   0.4398067

          TOTAL MULLIKEN AND LOWDIN ATOMIC POPULATIONS
       ATOM         MULL.POP.    CHARGE          LOW.POP.     CHARGE
    1 C             6.181260   -0.181260         6.089613   -0.089613
    2 C             5.727767    0.272233         5.760749    0.239251
    3 N             7.260801   -0.260801         7.089987   -0.089987
    4 CL           16.893815    0.106185        16.880940    0.119060
    5 H             0.881672    0.118328         0.922759    0.077241
    6 H             0.855500    0.144500         0.899823    0.100177
    7 H             0.857138    0.142862         0.901618    0.098382
    8 H             0.704155    0.295845         0.787062    0.212938
    9 H             0.637893    0.362107         0.667449    0.332551

          -------------------------------
          BOND ORDER AND VALENCE ANALYSIS     BOND ORDER THRESHOLD=0.050
          -------------------------------

                   BOND                       BOND                       BOND
  ATOM PAIR DIST  ORDER      ATOM PAIR DIST  ORDER      ATOM PAIR DIST  ORDER
    1   2  1.501  0.983        1   5  1.111  0.966        1   6  1.110  0.948
    1   7  1.110  0.952        2   3  1.288  1.694        2   4  1.755  1.069
    3   4  2.638  0.063        3   8  1.035  0.868        3   9  1.500  0.807

                       TOTAL       BONDED        FREE
      ATOM            VALENCE     VALENCE     VALENCE
    1 C                 3.902       3.902       0.000
    2 C                 3.805       3.805      -0.000
    3 N                 3.471       3.471      -0.000
    4 CL                1.195       1.195       0.000
    5 H                 0.986       0.986       0.000
    6 H                 0.979       0.979       0.000
    7 H                 0.980       0.980       0.000
    8 H                 0.912       0.912      -0.000
    9 H                 0.869       0.869       0.000

          ---------------------
          ELECTROSTATIC MOMENTS
          ---------------------

 POINT   1           X           Y           Z (BOHR)    CHARGE
                 5.372488    0.429443   -0.493185        1.00 (A.U.)
         DX          DY          DZ         /D/  (DEBYE)
    -0.038941   -4.551533    3.651530    5.835378
 ...... END OF PROPERTY EVALUATION ......
 STEP CPU TIME =     0.00 TOTAL CPU TIME =          0.2 (      0.0 MIN)
 TOTAL WALL CLOCK TIME=          0.3 SECONDS, CPU UTILIZATION IS    79.31%

     ---------------------------------------------
     1ST AND 2ND INTEGRAL DERIVATIVE CONTRIBUTIONS
     ---------------------------------------------
 ...... END OF 1-ELECTRON GRAD+HESS+FOCKDER ......
 STEP CPU TIME =     0.04 TOTAL CPU TIME =          0.3 (      0.0 MIN)
 TOTAL WALL CLOCK TIME=          0.3 SECONDS, CPU UTILIZATION IS    87.10%

     ----------------------------------------------
     TWO ELECTRON INTEGRAL DERIVATIVE CONTRIBUTIONS
     ----------------------------------------------

      23217 WORDS REQUIRED,    997935 WORDS AVAILABLE
 THE COARSE/FINE SCHWARZ SCREENINGS SKIPPED        696/        77 BLOCKS.
 THE NUMBER OF DERIVATIVE INTEGRAL BLOCKS COMPUTED WAS      4748
 STEP CPU TIME =     1.22 TOTAL CPU TIME =          1.5 (      0.0 MIN)
 TOTAL WALL CLOCK TIME=          1.5 SECONDS, CPU UTILIZATION IS    96.75%
 ...... END OF 2-ELECTRON GRAD+HESS+FOCKDER ......
 STEP CPU TIME =     0.00 TOTAL CPU TIME =          1.5 (      0.0 MIN)
 TOTAL WALL CLOCK TIME=          1.5 SECONDS, CPU UTILIZATION IS    96.75%

     -------------------------------------------
     COUPLED-PERTURBED CLOSED SHELL HARTREE-FOCK
     -------------------------------------------
 THE CPHF HAS     180 INDEPENDENT ORBITAL ROTATIONS.
 SOLVING FOR   27 NUCLEAR RESPONSES AND 0 ELECTRIC FIELD RESPONSES
           -FA- WILL USE     18669 WORDS,
           -TA- WILL USE     34433 WORDS,
          -FCK- WILL USE     73429 WORDS,
 -WXY- AND -YA- WILL USE     81384 WORDS,
               THERE ARE    997935 WORDS OF REPLICATED MEMORY AVAILABLE.
        TIME FOR -FA-   =        0.000
        TIME FOR -TA-   =        0.010
        TIME FOR -FCK-  =        0.010
 PRECONDITIONED CONJUGATE GRADIENT SOLVER     CONV. TOLERANCE=5.00E-05
 ITER    RESPONSE ERROR        IMPROVED
   1       4.15582E-01            27
   2       1.92689E-01            27
   3       4.11057E-02            27
   4       1.20741E-02            27
   5       3.18599E-03            27
   6       7.47574E-04            27
   7       1.80581E-04            27
   8       4.70466E-05            27
 THE CPHF HAS CONVERGED AFTER  8 ITERATIONS.
 IT REQUIRED   216 FOCK-LIKE BUILDS TO FIND THE  27 SYMMETRY UNIQUE RESPONSES.
        TIME FOR -YA-   =        0.070
 ...... DONE WITH CPHF CONTRIBUTIONS ......
 STEP CPU TIME =     0.09 TOTAL CPU TIME =          1.6 (      0.0 MIN)
 TOTAL WALL CLOCK TIME=          1.6 SECONDS, CPU UTILIZATION IS    96.93%

          PARAMETERS CONTROLLING GEOMETRY SEARCH ARE
          METHOD =QA                  UPHESS =BFGS    
          NNEG   =         0          NFRZ   =         0
          NSTEP  =        50          IFOLOW =         1
          HESS   =CALC                RESTAR =         F
          IHREP  =         5          HSSEND =         T
          NPRT   =         0          NPUN   =         0
          OPTTOL = 5.000E-04          RMIN   = 1.500E-03
          RMAX   = 1.000E-01          RLIM   = 7.000E-02
          DXMAX  = 3.000E-01          PURIFY =         F
          MOVIE  =         F          TRUPD  =         T
          TRMAX  = 5.000E-01          TRMIN  = 5.000E-02
          ITBMAT =         5          STPT   =         F
          STSTEP = 1.000E-02          PROJCT=          T

 THE GRADIENT AT THE INITIAL GEOMETRY IS KNOWN.
 PROCEEDING DIRECTLY TO THE GEOMETRY SEARCH...

          NSERCH=  0     ENERGY=    -585.7287663

                                 -----------------------
                                 GRADIENT (HARTREE/BOHR)
                                 -----------------------
        ATOM     ZNUC       DE/DX         DE/DY         DE/DZ
 --------------------------------------------------------------
    1  C            6.0     0.0442300    -0.0056034    -0.0049064
    2  C            6.0    -0.0185629    -0.0142913     0.0178921
    3  N            7.0    -0.1638856     0.0766760    -0.0060845
    4  CL          17.0     0.0062915     0.0094329    -0.0062894
    5  H            1.0    -0.0115018    -0.0113133     0.0115731
    6  H            1.0    -0.0070309    -0.0060352    -0.0132007
    7  H            1.0    -0.0049140     0.0141053     0.0060660
    8  H            1.0     0.0073011     0.0003992    -0.0010696
    9  H            1.0     0.1480726    -0.0633703    -0.0039805


                     --------------------
                     INTERNAL COORDINATES
                     --------------------

                 - - ATOMS - -         COORDINATE        GRADIENT
 NO.   TYPE    I  J  K  L  M  N         (ANG,DEG)     (H/B,H/RAD)
 ----------------------------------------------------------------
   1 STRETCH   3  9                     1.5000000       0.0000000
   2 SYM.CRD.                           0.3519408       0.0013652
   3 SYM.CRD.                          -1.7812307       0.0083471
   4 SYM.CRD.                          -0.0626386      -0.0021328
   5 SYM.CRD.                          -0.1041508       0.0084253
   6 SYM.CRD.                          -0.9396312       0.0095578
   7 SYM.CRD.                           1.6705875      -0.0002035
   8 SYM.CRD.                           1.6061169      -0.0044897
   9 SYM.CRD.                          -0.1574211      -0.0209448
  10 SYM.CRD.                           2.1512265       0.0129636
  11 SYM.CRD.                          -0.3319804      -0.0004330
  12 SYM.CRD.                          -0.4675790       0.0002436
  13 SYM.CRD.                           0.3468540       0.0163243
  14 SYM.CRD.                           0.2094176       0.0057862
  15 SYM.CRD.                           0.3389626      -0.0038318
  16 SYM.CRD.                          -0.0868082       0.0236767
  17 SYM.CRD.                          -0.3602687      -0.0156555
  18 SYM.CRD.                          -0.2351376      -0.0130864
  19 SYM.CRD.                          -0.5118856       0.0088091
  20 SYM.CRD.                           0.1813604       0.0019813
  21 SYM.CRD.                           0.3213562      -0.0151456

 NOTE: CARTESIAN GRADIENTS ARE ALWAYS TAKEN TO TEST CONVERGENCE,
       SO THE FOLLOWING GRADIENTS ARE CARTESIAN.

          MAXIMUM GRADIENT = 0.0442300    RMS GRADIENT = 0.0136666

 NSERCH:   0  E=     -585.7287662546  GRAD. MAX=  0.0442300  R.M.S.=  0.0136666

          FORCE CONSTANT MATRIX NOT UPDATED --- TAKING FIRST STEP
 LOCAL CURVATURE   1 OF THE APPROXIMATE HESSIAN HAS EIGENVALUE=   -0.004323
 *** THIS MODE HAS AN INCORRECT CURVATURE ***
 THE COMPONENTS OF THIS MODE FOLLOWS:
       -0.995841      -0.013473       0.009109      -0.015678      -0.007622
       -0.015716      -0.000988       0.028117       0.022408       0.007229
       -0.002329       0.001248      -0.014969       0.024452       0.004221
        0.018477       0.036589       0.039590       0.006428      -0.043310
        0.011330
          TRIM/QA LAMBDA FOR NON-TS MODES =  -0.01058380
          TRIM/QA STEP HAS LENGTH         =   0.300000
          RADIUS OF STEP TAKEN=   0.17193  CURRENT TRUST RADIUS=   0.30000
          TRANSFORMING DISPLACEMENT FROM INTERNALS TO CARTESIANS
          THE ROOT MEAN SQUARE ERROR IN ITERATION   1 IS   0.00448540
          THE ROOT MEAN SQUARE ERROR IN ITERATION   2 IS   0.00000487
          THE ROOT MEAN SQUARE ERROR IN ITERATION   3 IS   0.00000000

 BEGINNING GEOMETRY SEARCH POINT NSERCH=   1 ...

 COORDINATES OF ALL ATOMS ARE (ANGS)
   ATOM   CHARGE       X              Y              Z
 ------------------------------------------------------------
 C           6.0   1.0712971158   0.0181142455  -0.0358531187
 C           6.0   2.5951775883  -0.0614888901   0.0458962765
 N           7.0   3.1844802661  -0.8705472398   0.8810684817
 CL         17.0   3.5387341724   0.9459144806  -0.9998454558
 H           1.0   0.6143829834  -0.6669293228   0.6731803442
 H           1.0   0.7761131416  -0.2467993751  -1.0522897810
 H           1.0   0.7498816602   1.0393166945   0.1682213502
 H           1.0   2.6076861709  -1.4684810514   1.5031535572
 H           1.0   4.6281933840  -1.2751908006   0.8368415453


                     --------------------
                     INTERNAL COORDINATES
                     --------------------

                 - - ATOMS - -         COORDINATE      COORDINATE
 NO.   TYPE    I  J  K  L  M  N        (BOHR,RAD)       (ANG,DEG)
 ----------------------------------------------------------------
   1 STRETCH   3  9                     2.8345890       1.5000000
   2 STRETCH   1  5                     2.0534494       1.0866387
   3 STRETCH   1  7                     2.0595488       1.0898664
   4 STRETCH   1  2                     2.8877779       1.5281464
   5 STRETCH   1  6                     2.0618429       1.0910803
   6 STRETCH   2  4                     3.2724120       1.7316860
   7 STRETCH   2  3                     2.4634415       1.3035972
   8 STRETCH   3  8                     1.9613190       1.0378854
   9 BEND      1  2  4                  2.0723028     118.7342021
  10 BEND      1  2  3                  2.1146058     121.1579849
  11 BEND      2  3  8                  2.0832615     119.3620944
  12 BEND      2  1  5                  1.9300380     110.5830327
  13 BEND      2  3  9                  2.1939879     125.7062464
  14 BEND      2  1  6                  1.8828102     107.8770768
  15 BEND      2  1  7                  1.9101545     109.4437921
  16 BEND      3  2  4                  2.0962742     120.1076644
  17 BEND      5  1  6                  1.9188158     109.9400451
  18 BEND      5  1  7                  1.9225250     110.1525670
  19 BEND      6  1  7                  1.8987993     108.7931870
  20 BEND      8  3  9                  1.9792013     113.3998818
  21 TORSION   1  2  3  8              -0.0035070      -0.2009339
  22 TORSION   1  2  3  9               2.8747814     164.7128396
  23 TORSION   3  2  1  6              -2.0978108    -120.1957043
  24 TORSION   3  2  1  7               2.1220740     121.5858820
  25 TORSION   3  2  1  5               0.0010963       0.0628118
  26 TORSION   4  2  3  9              -0.2643320     -15.1451099
  27 TORSION   4  2  1  6               1.0413359      59.6641528
  28 TORSION   4  2  3  8               3.1405649     179.9411166
  29 TORSION   4  2  1  7              -1.0219646     -58.5542609
  30 TORSION   4  2  1  5               3.1402430     179.9226689

          INTERNUCLEAR DISTANCES (ANGS.)
          ------------------------------

                1 C          2 C          3 N          4 CL         5 H     

   1 C       0.0000000    1.5281464 *  2.4690094 *  2.8068381 *  1.0866387 *
   2 C       1.5281464 *  0.0000000    1.3035972 *  1.7316860 *  2.1641605 *
   3 N       2.4690094 *  1.3035972 *  0.0000000    2.6387244 *  2.5865185 *
   4 CL      2.8068381 *  1.7316860 *  2.6387244 *  0.0000000    3.7352524  
   5 H       1.0866387 *  2.1641605 *  2.5865185 *  3.7352524    0.0000000  
   6 H       1.0910803 *  2.1329201 *  3.1507408    3.0095501    1.7832310 *
   7 H       1.0898664 *  2.1521741 *  3.1753743    3.0250293    1.7845501 *
   8 H       2.6341979 *  2.0256807 *  1.0378854 *  3.6001611    2.3031714 *
   9 H       3.8840372    2.4963613 *  1.5000000 *  3.0811766    4.0629350  

                6 H          7 H          8 H          9 H     

   1 C       1.0910803 *  1.0898664 *  2.6341979 *  3.8840372  
   2 C       2.1329201 *  2.1521741 *  2.0256807 *  2.4963613 *
   3 N       3.1507408    3.1753743    1.0378854 *  1.5000000 *
   4 CL      3.0095501    3.0250293    3.6001611    3.0811766  
   5 H       1.7832310 *  1.7845501 *  2.3031714 *  4.0629350  
   6 H       0.0000000    1.7732541 *  3.3730486    4.4119076  
   7 H       1.7732541 *  0.0000000    3.3944854    4.5656653  
   8 H       3.3730486    3.3944854    0.0000000    2.1363011 *
   9 H       4.4119076    4.5656653    2.1363011 *  0.0000000  

  * ... LESS THAN  3.000

 ...... END OF ONE-ELECTRON INTEGRALS ......
 STEP CPU TIME =     0.02 TOTAL CPU TIME =          1.6 (      0.0 MIN)
 TOTAL WALL CLOCK TIME=          1.7 SECONDS, CPU UTILIZATION IS    96.97%
 TOTAL NUMBER OF NONZERO TWO-ELECTRON INTEGRALS =               86626
          6 INTEGRAL RECORDS WERE STORED ON DISK FILE  8.
  ...... END OF TWO-ELECTRON INTEGRALS .....
 STEP CPU TIME =     0.02 TOTAL CPU TIME =          1.6 (      0.0 MIN)
 TOTAL WALL CLOCK TIME=          1.7 SECONDS, CPU UTILIZATION IS    96.43%

          --------------------------
                 RHF SCF CALCULATION
          --------------------------
     DENSITY MATRIX CONV=  5.00E-05

 ITER EX DEM     TOTAL ENERGY        E CHANGE  DENSITY CHANGE     ORB. GRAD
          ---------------START SECOND ORDER SCF---------------
   1  0  0     -585.7324550181  -585.7324550181   0.008197548   0.003562517
   2  1  0     -585.7328438390    -0.0003888209   0.005444993   0.001728551
   3  2  0     -585.7329039134    -0.0000600744   0.001449639   0.000577267
   4  3  0     -585.7329082089    -0.0000042955   0.000558853   0.000177147
   5  4  0     -585.7329089237    -0.0000007148   0.000175394   0.000042916
   6  5  0     -585.7329089787    -0.0000000549   0.000033806   0.000009569
   7  6  0     -585.7329089819    -0.0000000032   0.000014115   0.000004429
   8  7  0     -585.7329089824    -0.0000000005   0.000003546   0.000000829

          -----------------
          DENSITY CONVERGED
          -----------------
     TIME TO FORM FOCK OPERATORS=       0.0 SECONDS (       0.0 SEC/ITER)
     TIME TO SOLVE SCF EQUATIONS=       0.0 SECONDS (       0.0 SEC/ITER)

 FINAL RHF ENERGY IS     -585.7329089824 AFTER   8 ITERATIONS
 ...... END OF RHF CALCULATION ......
 STEP CPU TIME =     0.03 TOTAL CPU TIME =          1.6 (      0.0 MIN)
 TOTAL WALL CLOCK TIME=          1.7 SECONDS, CPU UTILIZATION IS    96.49%
 ..... END OF 1-ELECTRON GRADIENT ......
 STEP CPU TIME =     0.01 TOTAL CPU TIME =          1.7 (      0.0 MIN)
 TOTAL WALL CLOCK TIME=          1.7 SECONDS, CPU UTILIZATION IS    96.51%
 ...... END OF 2-ELECTRON GRADIENT ......
 STEP CPU TIME =     0.03 TOTAL CPU TIME =          1.7 (      0.0 MIN)
 TOTAL WALL CLOCK TIME=          1.8 SECONDS, CPU UTILIZATION IS    96.57%

          NSERCH=  1     ENERGY=    -585.7329090

                                 -----------------------
                                 GRADIENT (HARTREE/BOHR)
                                 -----------------------
        ATOM     ZNUC       DE/DX         DE/DY         DE/DZ
 --------------------------------------------------------------
    1  C            6.0     0.0030324    -0.0035139    -0.0006271
    2  C            6.0    -0.0021264     0.0035786    -0.0042835
    3  N            7.0    -0.1527489     0.0495246     0.0094059
    4  CL          17.0    -0.0024342     0.0014730     0.0012969
    5  H            1.0    -0.0000743     0.0003088    -0.0006888
    6  H            1.0    -0.0000264    -0.0002959     0.0002631
    7  H            1.0    -0.0001499    -0.0007522     0.0002550
    8  H            1.0     0.0008723     0.0006924    -0.0003889
    9  H            1.0     0.1536553    -0.0510155    -0.0052327


                     --------------------
                     INTERNAL COORDINATES
                     --------------------

                 - - ATOMS - -         COORDINATE        GRADIENT
 NO.   TYPE    I  J  K  L  M  N         (ANG,DEG)     (H/B,H/RAD)
 ----------------------------------------------------------------
   1 STRETCH   3  9                     1.5000000       0.0000000
   2 SYM.CRD.                           0.3501758       0.0072994
   3 SYM.CRD.                          -1.7791011      -0.0009560
   4 SYM.CRD.                          -0.0729463       0.0053555
   5 SYM.CRD.                          -0.1104856       0.0010640
   6 SYM.CRD.                          -0.9788730       0.0054578
   7 SYM.CRD.                           1.6668607       0.0015449
   8 SYM.CRD.                           1.6206015      -0.0057614
   9 SYM.CRD.                          -0.1137303      -0.0018223
  10 SYM.CRD.                           2.1443308      -0.0011711
  11 SYM.CRD.                          -0.3397546       0.0007233
  12 SYM.CRD.                          -0.4657443      -0.0002337
  13 SYM.CRD.                           0.3304157      -0.0019925
  14 SYM.CRD.                           0.2098958      -0.0027142
  15 SYM.CRD.                           0.3500712      -0.0024331
  16 SYM.CRD.                          -0.1220167       0.0021485
  17 SYM.CRD.                          -0.3361179       0.0007747
  18 SYM.CRD.                          -0.1979700      -0.0044814
  19 SYM.CRD.                          -0.5146896       0.0020760
  20 SYM.CRD.                           0.1563473      -0.0039181
  21 SYM.CRD.                           0.3317549      -0.0092434

 NOTE: CARTESIAN GRADIENTS ARE ALWAYS TAKEN TO TEST CONVERGENCE,
       SO THE FOLLOWING GRADIENTS ARE CARTESIAN.

          MAXIMUM GRADIENT = 0.0073664    RMS GRADIENT = 0.0026797

 NSERCH:   1  E=     -585.7329089824  GRAD. MAX=  0.0073664  R.M.S.=  0.0026797

          HESSIAN UPDATED USING THE BFGS FORMULA
 LOCAL CURVATURE   1 OF THE APPROXIMATE HESSIAN HAS EIGENVALUE=   -0.005281
 *** THIS MODE HAS AN INCORRECT CURVATURE ***
 THE COMPONENTS OF THIS MODE FOLLOWS:
        0.997176       0.011700      -0.009797       0.003956       0.002318
       -0.020146      -0.003923      -0.011753       0.010201      -0.013391
       -0.003732       0.000131       0.004719      -0.024529       0.006090
       -0.048948      -0.021617      -0.009402      -0.008161       0.029138
        0.001204
             ACTUAL ENERGY CHANGE WAS  -0.0041427278
          PREDICTED ENERGY CHANGE WAS  -0.0039666298 RATIO=  1.044
          TRIM/QA LAMBDA FOR NON-TS MODES =  -0.00563319
          TRIM/QA STEP HAS LENGTH         =   0.343862
          RADIUS OF STEP TAKEN=   0.11141  CURRENT TRUST RADIUS=   0.34386
          TRANSFORMING DISPLACEMENT FROM INTERNALS TO CARTESIANS
          THE ROOT MEAN SQUARE ERROR IN ITERATION   1 IS   0.00473212
          THE ROOT MEAN SQUARE ERROR IN ITERATION   2 IS   0.00000138
          THE ROOT MEAN SQUARE ERROR IN ITERATION   3 IS   0.00000000

 BEGINNING GEOMETRY SEARCH POINT NSERCH=   2 ...

 COORDINATES OF ALL ATOMS ARE (ANGS)
   ATOM   CHARGE       X              Y              Z
 ------------------------------------------------------------
 C           6.0   1.0584346581   0.0289966878  -0.0423750462
 C           6.0   2.5955629996  -0.0667428744   0.0509829345
 N           7.0   3.1959636242  -0.8718980644   0.8757645788
 CL         17.0   3.5370591414   0.9415702175  -0.9963286854
 H           1.0   0.6039249593  -0.6481014450   0.6655059020
 H           1.0   0.7768676545  -0.2353560527  -1.0561328888
 H           1.0   0.7520423366   1.0502945439   0.1505001613
 H           1.0   2.6296989776  -1.4895546715   1.4950326417
 H           1.0   4.6608508370  -1.1928801045   0.8429623840


                     --------------------
                     INTERNAL COORDINATES
                     --------------------

                 - - ATOMS - -         COORDINATE      COORDINATE
 NO.   TYPE    I  J  K  L  M  N        (BOHR,RAD)       (ANG,DEG)
 ----------------------------------------------------------------
   1 STRETCH   3  9                     2.8345890       1.5000000
   2 STRETCH   1  5                     2.0406734       1.0798779
   3 STRETCH   1  7                     2.0476525       1.0835711
   4 STRETCH   1  2                     2.9157225       1.5429340
   5 STRETCH   1  6                     2.0500412       1.0848352
   6 STRETCH   2  4                     3.2730861       1.7320427
   7 STRETCH   2  3                     2.4559318       1.2996232
   8 STRETCH   3  8                     1.9689895       1.0419445
   9 BEND      1  2  4                  2.0587518     117.9577896
  10 BEND      1  2  3                  2.1377724     122.4853362
  11 BEND      2  3  8                  2.0867520     119.5620807
  12 BEND      2  1  5                  1.9184964     109.9217464
  13 BEND      2  3  9                  2.1771318     124.7404623
  14 BEND      2  1  6                  1.8754823     107.4572184
  15 BEND      2  1  7                  1.9064768     109.2330746
  16 BEND      3  2  4                  2.0866539     119.5564633
  17 BEND      5  1  6                  1.9289423     110.5202551
  18 BEND      5  1  7                  1.9340154     110.8109225
  19 BEND      6  1  7                  1.8992953     108.8216070
  20 BEND      8  3  9                  2.0008218     114.6386442
  21 TORSION   1  2  3  8               0.0128935       0.7387405
  22 TORSION   1  2  3  9               2.9377319     168.3196366
  23 TORSION   3  2  1  6              -2.0922868    -119.8792038
  24 TORSION   3  2  1  7               2.1331798     122.2222003
  25 TORSION   3  2  1  5               0.0076910       0.4406620
  26 TORSION   4  2  3  9              -0.1997059     -11.4423068
  27 TORSION   4  2  1  6               1.0452141      59.8863574
  28 TORSION   4  2  3  8              -3.1245443    -179.0232029
  29 TORSION   4  2  1  7              -1.0125046     -58.0122385
  30 TORSION   4  2  1  5              -3.1379934    -179.7937769

          INTERNUCLEAR DISTANCES (ANGS.)
          ------------------------------

                1 C          2 C          3 N          4 CL         5 H     

   1 C       0.0000000    1.5429340 *  2.4947188 *  2.8082730 *  1.0798779 *
   2 C       1.5429340 *  0.0000000    1.2996232 *  1.7320427 *  2.1638480 *
   3 N       2.4947188 *  1.2996232 *  0.0000000    2.6286397 *  2.6101644 *
   4 CL      2.8082730 *  1.7320427 *  2.6286397 *  0.0000000    3.7272009  
   5 H       1.0798779 *  2.1638480 *  2.6101644 *  3.7272009    0.0000000  
   6 H       1.0848352 *  2.1358344 *  3.1606074    3.0012313    1.7788502 *
   7 H       1.0835711 *  2.1578333 *  3.1927393    3.0138606    1.7809319 *
   8 H       2.6717957 *  2.0275202 *  1.0419445 *  3.5972979    2.3451905 *
   9 H       3.9056635    2.4821020 *  1.5000000 *  3.0334432    4.0971847  

                6 H          7 H          8 H          9 H     

   1 C       1.0848352 *  1.0835711 *  2.6717957 *  3.9056635  
   2 C       2.1358344 *  2.1578333 *  2.0275202 *  2.4821020 *
   3 N       3.1606074    3.1927393    1.0419445 *  1.5000000 *
   4 CL      3.0012313    3.0138606    3.5972979    3.0334432  
   5 H       1.7788502 *  1.7809319 *  2.3451905 *  4.0971847  
   6 H       0.0000000    1.7633709 *  3.3932939    4.4281758  
   7 H       1.7633709 *  0.0000000    3.4328117    4.5596184  
   8 H       3.3932939    3.4328117    0.0000000    2.1537849 *
   9 H       4.4281758    4.5596184    2.1537849 *  0.0000000  

  * ... LESS THAN  3.000

 ...... END OF ONE-ELECTRON INTEGRALS ......
 STEP CPU TIME =     0.03 TOTAL CPU TIME =          1.7 (      0.0 MIN)
 TOTAL WALL CLOCK TIME=          1.8 SECONDS, CPU UTILIZATION IS    97.18%
 TOTAL NUMBER OF NONZERO TWO-ELECTRON INTEGRALS =               86585
          6 INTEGRAL RECORDS WERE STORED ON DISK FILE  8.
  ...... END OF TWO-ELECTRON INTEGRALS .....
 STEP CPU TIME =     0.02 TOTAL CPU TIME =          1.7 (      0.0 MIN)
 TOTAL WALL CLOCK TIME=          1.8 SECONDS, CPU UTILIZATION IS    97.21%

          --------------------------
                 RHF SCF CALCULATION
          --------------------------
     DENSITY MATRIX CONV=  1.00E-05

 ITER EX DEM     TOTAL ENERGY        E CHANGE  DENSITY CHANGE     ORB. GRAD
          ---------------START SECOND ORDER SCF---------------
   1  0  0     -585.7334872658  -585.7334872658   0.013668938   0.002870200
   2  1  0     -585.7337848797    -0.0002976138   0.009349053   0.001127249
   3  2  0     -585.7338381827    -0.0000533030   0.001041116   0.000202732
   4  3  0     -585.7338396470    -0.0000014644   0.000681852   0.000084626
   5  4  0     -585.7338399720    -0.0000003250   0.000067272   0.000019524
   6  5  0     -585.7338399804    -0.0000000084   0.000027365   0.000005367
   7  6  0     -585.7338399817    -0.0000000013   0.000009421   0.000001681
   8  7  0     -585.7338399818    -0.0000000001   0.000002709   0.000000712

          -----------------
          DENSITY CONVERGED
          -----------------
     TIME TO FORM FOCK OPERATORS=       0.0 SECONDS (       0.0 SEC/ITER)
     TIME TO SOLVE SCF EQUATIONS=       0.0 SECONDS (       0.0 SEC/ITER)

 FINAL RHF ENERGY IS     -585.7338399818 AFTER   8 ITERATIONS
 ...... END OF RHF CALCULATION ......
 STEP CPU TIME =     0.02 TOTAL CPU TIME =          1.8 (      0.0 MIN)
 TOTAL WALL CLOCK TIME=          1.8 SECONDS, CPU UTILIZATION IS    96.17%
 ..... END OF 1-ELECTRON GRADIENT ......
 STEP CPU TIME =     0.02 TOTAL CPU TIME =          1.8 (      0.0 MIN)
 TOTAL WALL CLOCK TIME=          1.8 SECONDS, CPU UTILIZATION IS    97.27%
 ...... END OF 2-ELECTRON GRADIENT ......
 STEP CPU TIME =     0.03 TOTAL CPU TIME =          1.8 (      0.0 MIN)
 TOTAL WALL CLOCK TIME=          1.9 SECONDS, CPU UTILIZATION IS    96.79%

          NSERCH=  2     ENERGY=    -585.7338400

                                 -----------------------
                                 GRADIENT (HARTREE/BOHR)
                                 -----------------------
        ATOM     ZNUC       DE/DX         DE/DY         DE/DZ
 --------------------------------------------------------------
    1  C            6.0    -0.0138691     0.0002798    -0.0016144
    2  C            6.0     0.0071261    -0.0027920     0.0011687
    3  N            7.0    -0.1520932     0.0442446     0.0031303
    4  CL          17.0    -0.0029439     0.0002283     0.0016008
    5  H            1.0     0.0041072     0.0037545    -0.0044190
    6  H            1.0     0.0020645     0.0017452     0.0050375
    7  H            1.0     0.0012512    -0.0058006    -0.0017412
    8  H            1.0    -0.0023429    -0.0016444     0.0010676
    9  H            1.0     0.1567000    -0.0400154    -0.0042303


                     --------------------
                     INTERNAL COORDINATES
                     --------------------

[...]
       FREQUENCY:        72.35       86.42      124.75      352.56      508.88  
        SYMMETRY:         A           A           A           A           A   
    REDUCED MASS:      5.10294     2.70402     1.11449     3.50228     4.13184
    IR INTENSITY:      0.19789     0.01155     0.03277     0.02566     0.26456

  1   C            X -0.02996163  0.00227531 -0.00045049 -0.09170479 -0.07040161
                   Y  0.10265410  0.13972133 -0.03914136 -0.09149661  0.03766720
                   Z -0.10234841  0.13819870 -0.03861206  0.09449611 -0.03677224
  2   C            X -0.04133982  0.00032946 -0.00001399 -0.05932114 -0.05618176
                   Y  0.01373067  0.00513128 -0.00455280  0.05114944  0.00225777
                   Z -0.01286728  0.00526529 -0.00424219 -0.05121915 -0.00749886
  3   N            X -0.11730015 -0.00051163  0.00099032 -0.04647841  0.13799158
                   Y -0.01427687 -0.07158278  0.04865556  0.05856877  0.07820559
                   Z  0.01681853 -0.07037157  0.04786467 -0.05876892 -0.08055407
  4   CL           X  0.08173607 -0.00093476 -0.00024457  0.07971089 -0.01582422
                   Y -0.04403664 -0.03241737 -0.00475116 -0.00051107 -0.05531264
                   Z  0.04241660 -0.03230415 -0.00464665 -0.00071558  0.05745496
  5   H            X -0.11196830  0.00208637 -0.00674017  0.09915185 -0.12818528
                   Y  0.13017818  0.06058094 -0.41972139 -0.15783858  0.05854698
                   Z -0.12953456  0.06196509 -0.40871552  0.15790318 -0.05285631
  6   H            X  0.01616110 -0.10543769  0.05485054 -0.20216645 -0.03442892
                   Y  0.12076355  0.34450282  0.48337829 -0.13861950  0.05486342
                   Z -0.12075732  0.12272567 -0.17798611  0.13962782 -0.05338636
  7   H            X  0.01808378  0.11163588 -0.04905152 -0.20395690 -0.02444130
                   Y  0.12004625  0.12835426 -0.16160551 -0.13442644  0.05577698
                   Z -0.12003814  0.34214789  0.48788657  0.14621862 -0.05319220
  8   H            X -0.16031383  0.00011372  0.00111637 -0.03587098  0.30637435
                   Y  0.00403350 -0.04883533  0.04842595  0.05443185  0.01169685
                   Z -0.00052521 -0.04781819  0.04773774 -0.05475118 -0.01174603
  9   H            X -0.11908216  0.00015767  0.00007033  0.02114631  0.01965107
                   Y -0.03456655 -0.08988291  0.05851310  0.06081993  0.17632149
                   Z  0.03737439 -0.08854317  0.05743270 -0.06290711 -0.17597834

 TRANS. SAYVETZ    X  0.00012282  0.00002834 -0.00001106  0.00003315  0.00000785
                   Y -0.00009453  0.00006309 -0.00008467  0.00000233 -0.00000067
                   Z  0.00009224  0.00004373 -0.00008153 -0.00000203  0.00000072
               TOTAL  0.00018036  0.00008182  0.00011806  0.00003329  0.00000791

   ROT. SAYVETZ    X -0.33583789  1.06121573 -0.22202666  0.00400591  0.04326508
                   Y-16.87362836 10.48198662 -2.63067247  0.23479582  1.50613346
                   Z-16.72151381-10.51533833  2.69841040  0.22780083  1.48945639
               TOTAL 23.75797014 14.88524647  3.77506982  0.32716715  2.11867652

                           11          12          13          14          15
       FREQUENCY:       528.99      777.68      802.77     1138.73     1229.07  
        SYMMETRY:         A           A           A           A           A   
    REDUCED MASS:      3.51001     4.57532     1.09839     1.93925     1.45130
    IR INTENSITY:      0.02423     0.51128     2.06171     0.04376     0.85313

  1   C            X -0.00136501  0.15371075  0.00192033 -0.08840237  0.00088401
                   Y -0.01213007 -0.00708288  0.00147390  0.06443410  0.08692827
                   Z -0.01311442  0.00495816  0.00165108 -0.06474192  0.08540003
  2   C            X  0.00159729  0.02724217  0.00014093  0.12301896 -0.00101473
                   Y  0.16927130  0.06994710 -0.00078821  0.04192009 -0.07699988
                   Z  0.16592362 -0.07191640 -0.00192473 -0.04411000 -0.07594501
  3   N            X  0.00167693 -0.06586239 -0.00209737  0.05799914  0.00091347
                   Y -0.04804756  0.06653653 -0.05463938 -0.03135041  0.02295610
                   Z -0.05004619 -0.06536614 -0.05511901  0.03083459  0.02258468
  4   CL           X -0.00063700 -0.04427018 -0.00027449 -0.01861460  0.00002091
                   Y -0.02189135 -0.04849628  0.00729459 -0.01460150  0.00193612
                   Z -0.01946160  0.04989419  0.00798182  0.01513550  0.00197755
  5   H            X -0.00550329  0.29259012  0.00221620  0.30016601 -0.00673400
                   Y -0.12383441 -0.04985250 -0.04392141 -0.06844581 -0.19024050
                   Z -0.12320867  0.04709458 -0.04191647  0.06547520 -0.18603322
  6   H            X  0.26320629  0.07376758  0.08200223 -0.33999396  0.50976939
                   Y -0.07778110 -0.04057442 -0.02892307 -0.09778680 -0.16271402
                   Z -0.08025743  0.04038921 -0.01705532  0.04788091 -0.01182236
  7   H            X -0.26437873  0.07414506 -0.07988561 -0.34123536 -0.50915759
                   Y -0.07591288 -0.04027278 -0.01740590 -0.04002390 -0.00814016
                   Z -0.07430373  0.04089882 -0.02651777  0.10436550 -0.15724435
  8   H            X  0.00392537 -0.16831052  0.01081467 -0.18743802 -0.00357922
                   Y -0.09841814  0.10488030  0.66703549  0.07306275 -0.06835443
                   Z -0.09715300 -0.11788494  0.65435040 -0.06877278 -0.06951079
  9   H            X -0.00121176  0.02440271 -0.00102471 -0.00365617 -0.00215952
                   Y -0.06794742  0.03551524 -0.07888367 -0.19092170 -0.07490481
                   Z -0.07392647 -0.03621225 -0.07671776  0.19354535 -0.07038382

 TRANS. SAYVETZ    X  0.00000121 -0.00000214  0.00000020 -0.00000058  0.00000019
                   Y -0.00000137 -0.00000099 -0.00000993 -0.00000106 -0.00000012
                   Z -0.00000129  0.00000124 -0.00001002  0.00000099 -0.00000013
               TOTAL  0.00000224  0.00000267  0.00001411  0.00000156  0.00000026

   ROT. SAYVETZ    X  0.03325154 -0.00478126  0.01276541 -0.01499133  0.02779003
                   Y  0.36431761 -0.18341419  0.14426894 -0.54406864  0.26269074
                   Z -0.30755851 -0.17612756 -0.16098692 -0.53888077 -0.27730348
               TOTAL  0.47793851  0.25433156  0.21654854  0.76591639  0.38298294

                           16          17          18          19          20
       FREQUENCY:      1245.56     1386.06     1502.05     1630.39     1661.85  
        SYMMETRY:         A           A           A           A           A   
    REDUCED MASS:      1.28517     1.09105     2.28916     1.16043     1.23551
    IR INTENSITY:      0.12410     4.03653     0.98900     0.37744     0.09770

  1   C            X  0.05285030 -0.00013482 -0.05289355 -0.01388828 -0.12175602
                   Y  0.05775708  0.01533722 -0.02894706 -0.01449321  0.01880878
                   Z -0.05897171  0.01525174  0.03041545  0.01487521 -0.01764010
  2   C            X -0.06504023  0.00081068  0.17159098 -0.04441109  0.03013768
                   Y -0.02557706 -0.00465373  0.05900412  0.06745719 -0.01176752
                   Z  0.02642349 -0.00491417 -0.06305394 -0.06785020  0.01132324
  3   N            X -0.04262259 -0.00164447 -0.08168087 -0.00280982 -0.00857608
                   Y -0.02717287 -0.05246259 -0.01300979  0.00681775  0.00230335
                   Z  0.02857321 -0.05172578  0.01515742 -0.00675456 -0.00217640
  4   CL           X  0.00384308 -0.00009027 -0.01232450 -0.00205693 -0.00076595
                   Y  0.00806277 -0.00095833 -0.00992017 -0.00358756  0.00000451
                   Z -0.00826674 -0.00082171  0.01029867  0.00367138  0.00001519
  5   H            X  0.48461556 -0.00215094 -0.25689764  0.09235901  0.36038190
                   Y -0.08484928 -0.02703725  0.03610025 -0.04872218 -0.14850802
                   Z  0.07693464 -0.02677129 -0.03248476  0.04998926  0.14933203
  6   H            X -0.17883380  0.07227923  0.00988068  0.14236570  0.46974101
                   Y -0.11884172 -0.02437562  0.08557249  0.07750439 -0.23603101
                   Z  0.05440080  0.00370344 -0.01572769 -0.05679825 -0.14287759
  7   H            X -0.18543245 -0.07207905  0.00933828  0.14260951  0.47374113
                   Y -0.04830908  0.00422121  0.01287912  0.05201303  0.14218162
                   Z  0.12091046 -0.02409405 -0.08566808 -0.08053355  0.22589739
  8   H            X  0.45499273 -0.00000936  0.34447825  0.44028471 -0.06940170
                   Y -0.24235911  0.00694058 -0.19534335 -0.17397902  0.02849853
                   Z  0.23667392  0.00713017  0.19263532  0.16753740 -0.02753456
  9   H            X  0.02866950  0.01989372  0.04242024 -0.01304869  0.00215736
                   Y  0.20899092  0.67522845  0.22787396 -0.50769902  0.09785980
                   Z -0.21154720  0.66415004 -0.23807293  0.51703276 -0.09989097

 TRANS. SAYVETZ    X -0.00000030 -0.00000005  0.00000014 -0.00000088  0.00000051
                   Y  0.00000125 -0.00000112  0.00000039 -0.00000036 -0.00000001
                   Z -0.00000122 -0.00000122 -0.00000032  0.00000038  0.00000003
               TOTAL  0.00000177  0.00000166  0.00000052  0.00000103  0.00000051

   ROT. SAYVETZ    X  0.01933368 -0.16331449  0.01468570 -0.02398146  0.00437882
                   Y  0.66936657 -1.59052381  0.48844170 -0.84232696  0.15184932
                   Z  0.66344293  1.62170234  0.47203688 -0.82827578  0.14892188
               TOTAL  0.94264623  2.27735726  0.67941871  1.18157970  0.21273250

                           21          22          23          24          25
       FREQUENCY:      1731.31     1738.82     1907.83     3562.00     3724.08  
        SYMMETRY:         A           A           A           A           A   
    REDUCED MASS:      1.04546     1.06458     5.10343     1.03704     1.10825
    IR INTENSITY:      0.30756     1.38692     5.75815     0.86707     0.87856

  1   C            X -0.00070238  0.03047268 -0.01829667  0.04925045 -0.00069874
                   Y -0.03973912  0.03285529  0.00606151 -0.00829440 -0.06465130
                   Z -0.03758422 -0.03543430 -0.00579877  0.00809569 -0.06374407
  2   C            X -0.00052454  0.01270639  0.09654400 -0.00107394 -0.00002981
                   Y -0.01201210 -0.00268400 -0.12716337 -0.00008429  0.00035452
                   Z -0.01167817  0.00207081  0.12801748  0.00011021  0.00033009
  3   N            X  0.00030343 -0.01728225 -0.07138550 -0.00123776  0.00000055
                   Y  0.00004328  0.02117444  0.10179690  0.00001761 -0.00023803
                   Z  0.00068068 -0.02115590 -0.10233970 -0.00000007 -0.00022820
  4   CL           X  0.00001515 -0.00013308  0.00158688 -0.00014335 -0.00000108
                   Y  0.00037994 -0.00040687  0.00303634 -0.00003728  0.00001481
                   Z  0.00034435  0.00042586 -0.00310417  0.00004011  0.00001468
  5   H            X  0.01229230 -0.38889917  0.09245463 -0.22429453 -0.00332001
                   Y  0.50488893  0.17889582 -0.03217696 -0.32292859 -0.00631923
                   Z  0.49445662 -0.16400469  0.03152503  0.33598596  0.00362392
  6   H            X  0.32571881  0.01346630 -0.07804387 -0.17205482  0.19098340
                   Y  0.28393498 -0.56781190  0.08898726 -0.13292630  0.14600496
                   Z -0.21157633  0.11979002 -0.00661634 -0.54915817  0.62554163
  7   H            X -0.32670641  0.01076460 -0.08023369 -0.16126643 -0.17890164
                   Y -0.19574001 -0.10872445  0.00521212  0.55256653  0.62944799
                   Z  0.27762866  0.57920777 -0.08821412  0.11833126  0.12923497
  8   H            X -0.00188627  0.11500254  0.14755902  0.00426327 -0.00000285
                   Y  0.00132125 -0.03146730  0.03040954  0.00403783  0.00074698
                   Z  0.00026769  0.02919862 -0.03553789 -0.00417610  0.00080042
  9   H            X  0.00044868 -0.01971588 -0.07661574  0.00189465 -0.00005428
                   Y  0.00800341 -0.11022348 -0.17024507  0.00006268 -0.00151637
                   Z  0.00437643  0.11223198  0.17325388 -0.00007987 -0.00148027

 TRANS. SAYVETZ    X  0.00000001  0.00000121  0.00000371 -0.00000018 -0.00000001
                   Y -0.00000020  0.00000077  0.00000199 -0.00000023  0.00000000
                   Z -0.00000017 -0.00000077 -0.00000190  0.00000025  0.00000001
               TOTAL  0.00000026  0.00000163  0.00000462  0.00000038  0.00000002

   ROT. SAYVETZ    X -0.00091832 -0.00534460 -0.00962504  0.00000870  0.00004743
                   Y -0.00531179 -0.18859601 -0.32362148  0.00004653  0.00038122
                   Z  0.01151889 -0.18590998 -0.31944483  0.00005973 -0.00039649
               TOTAL  0.01271783  0.26487646  0.45482799  0.00007621  0.00055207

                           26          27
       FREQUENCY:      3757.01     3957.67  
        SYMMETRY:         A           A   
    REDUCED MASS:      1.11256     1.08300
    IR INTENSITY:      0.58411     5.85681

  1   C            X  0.01370899  0.00012693
                   Y  0.06417640 -0.00038201
                   Z -0.06523166  0.00039153
  2   C            X -0.00133258  0.00205762
                   Y  0.00004802 -0.00245509
                   Z -0.00003488  0.00248919
  3   N            X  0.00047542  0.03399425
                   Y -0.00013832  0.04495957
                   Z  0.00013775 -0.04636878
  4   CL           X -0.00012531 -0.00010708
                   Y -0.00003191 -0.00026353
                   Z  0.00003325  0.00027029
  5   H            X -0.33762997  0.00017541
                   Y -0.50586236 -0.00135477
                   Z  0.52597889  0.00137495
  6   H            X  0.09628052 -0.00104290
                   Y  0.08049554 -0.00063048
                   Z  0.31982935 -0.00545339
  7   H            X  0.09331915 -0.00092703
                   Y -0.33382071  0.00543899
                   Z -0.07434219  0.00046241
  8   H            X -0.00099357 -0.48299196
                   Y -0.00215296 -0.57560457
                   Z  0.00220536  0.59418699
  9   H            X -0.00059741 -0.00983666
                   Y -0.00033942 -0.00960800
                   Z  0.00037832  0.01001385

 TRANS. SAYVETZ    X  0.00000020  0.00000046
                   Y  0.00000007  0.00000037
                   Z -0.00000007 -0.00000038
               TOTAL  0.00000023  0.00000070

   ROT. SAYVETZ    X  0.00000347 -0.00040329
                   Y -0.00012630 -0.01585787
                   Z -0.00011255 -0.01565678
               TOTAL  0.00016921  0.02228832

 REFERENCE ON SAYVETZ CONDITIONS - A. SAYVETZ, J.CHEM.PHYS., 7, 383-389(1939).

 NOTE - THE MODES J,K ARE ORTHONORMALIZED ACCORDING TO
 SUM ON I   M(I) * (X(I,J)*X(I,K) + Y(I,J)*Y(I,K) + Z(I,J)*Z(I,K)) = DELTA(J,K)

  MODE FREQ(CM**-1)  SYMMETRY  RED. MASS  IR INTENS.
     1     300.078    A        1.033842   12.646347
     2       0.089    A        9.110275    0.000436
     3       0.032    A        8.668330    0.000000
     4       0.035    A        8.667838    0.000000
     5       2.622    A        5.453192    0.329119
     6      72.352    A        5.102941    0.197889
     7      86.419    A        2.704018    0.011551
     8     124.751    A        1.114491    0.032766
     9     352.562    A        3.502282    0.025663
    10     508.882    A        4.131839    0.264559
    11     528.990    A        3.510012    0.024231
    12     777.678    A        4.575317    0.511285
    13     802.767    A        1.098387    2.061711
    14    1138.728    A        1.939247    0.043755
    15    1229.069    A        1.451297    0.853125
    16    1245.561    A        1.285175    0.124099
    17    1386.056    A        1.091050    4.036533
    18    1502.048    A        2.289164    0.989003
    19    1630.387    A        1.160425    0.377437
    20    1661.845    A        1.235511    0.097702
    21    1731.311    A        1.045457    0.307556
    22    1738.824    A        1.064580    1.386916
    23    1907.828    A        5.103433    5.758153
    24    3561.998    A        1.037042    0.867071
    25    3724.076    A        1.108254    0.878565
    26    3757.009    A        1.112556    0.584113
    27    3957.666    A        1.083002    5.856808

     -------------------------------
     THERMOCHEMISTRY AT T=  298.15 K
     -------------------------------

 USING IDEAL GAS, RIGID ROTOR, HARMONIC NORMAL MODE APPROXIMATIONS.
 P=  1.01325E+05 PASCAL.
 ALL FREQUENCIES ARE SCALED BY   1.00000
 THE MOMENTS OF INERTIA ARE (IN AMU*BOHR**2)
            204.35087           379.78379           572.80747
 THE ROTATIONAL SYMMETRY NUMBER IS  1.0
 THE ROTATIONAL CONSTANTS ARE (IN GHZ)
      8.82349     4.74767     3.14781
   1 IMAGINARY FREQUENCY VIBRATION(S) IS(ARE) EXCLUDED
     FROM THE FOLLOWING THERMOCHEMICAL ANALYSIS.
      8 -     27 VIBRATIONAL MODES ARE USED IN THERMOCHEMISTRY.
 THE HARMONIC ZERO POINT ENERGY IS (SCALED BY   1.000)
        0.075790 HARTREE/MOLECULE    16634.018294 CM**-1/MOLECULE 
       47.559093 KCAL/MOL              198.987243 KJ/MOL

               Q               LN Q
 ELEC.     1.00000E+00       0.000000
 TRANS.    2.70824E+07      17.114396
 ROT.      7.54748E+04      11.231555
 VIB.      3.39673E+00       1.222813
 TOT.      6.94306E+12      29.568764

              E         H         G         CV        CP        S
           KJ/MOL    KJ/MOL    KJ/MOL   J/MOL-K   J/MOL-K   J/MOL-K
 ELEC.      0.000     0.000     0.000     0.000     0.000     0.000
 TRANS.     3.718     6.197   -42.426    12.472    20.786   163.082
 ROT.       3.718     3.718   -27.842    12.472    12.472   105.855
 VIB.     203.460   203.460   195.956    34.379    34.379    25.168
 TOTAL    210.897   213.375   125.688    59.322    67.636   294.105
 VIB. THERMAL CORRECTION E(T)-E(0) = H(T)-H(0) =      4472.484 J/MOL

              E         H         G         CV        CP        S
         KCAL/MOL  KCAL/MOL  KCAL/MOL CAL/MOL-K CAL/MOL-K CAL/MOL-K
 ELEC.      0.000     0.000     0.000     0.000     0.000     0.000
 TRANS.     0.889     1.481   -10.140     2.981     4.968    38.978
 ROT.       0.889     0.889    -6.654     2.981     2.981    25.300
 VIB.      48.628    48.628    46.835     8.217     8.217     6.015
 TOTAL     50.405    50.998    30.040    14.178    16.165    70.293
 VIB. THERMAL CORRECTION E(T)-E(0) = H(T)-H(0) =      1068.949 CAL/MOL

     *******************************************************
     * THIS IS NOT A STATIONARY POINT ON THE MOLECULAR PES *
     *     THE VIBRATIONAL ANALYSIS IS NOT VALID !!!       *
     *******************************************************
 ......END OF NORMAL COORDINATE ANALYSIS......
 STEP CPU TIME =     0.01 TOTAL CPU TIME =          5.3 (      0.1 MIN)
 TOTAL WALL CLOCK TIME=          5.5 SECONDS, CPU UTILIZATION IS    96.35%
               580000  WORDS OF DYNAMIC MEMORY USED
 EXECUTION OF GAMESS TERMINATED NORMALLY Wed Dec 22 14:03:08 2021
 DDI: 263640 bytes (0.3 MB / 0 MWords) used by master data server.

 ----------------------------------------
 CPU timing information for all processes
 ========================================
 0: 4.741 + 0.541 = 5.282
 ----------------------------------------
 ddikick.x: exited gracefully.
----- accounting info -----
Files used on the master node chemcompute-node-2.novalocal were:
-rw-r--r--. 1 chemcomp chemcomp      899 Dec 22 14:03 /scratch/331103/369092.F05
-rw-rw-r--. 1 chemcomp chemcomp  1080096 Dec 22 14:03 /scratch/331103/369092.F08
-rw-rw-r--. 1 chemcomp chemcomp 85196800 Dec 22 14:03 /scratch/331103/369092.F10
-rw-rw-r--. 1 chemcomp chemcomp    94176 Dec 22 14:03 /scratch/331103/369092.F18
Wed Dec 22 14:03:11 UTC 2021
0.145u 0.096s 0:09.08 2.5%	0+0k 8+216io 0pf+0w
Finishing Up...
Looking for IR data...
Looking for Raman data...
vibramans not found
Looking for thermodynamics data...
Looking for UV-Vis data...
331103
