----- GAMESS execution script 'rungms' -----
This job is running on host chemcompute-node-0.novalocal
under operating system Linux at Wed Dec 22 15:04:53 UTC 2021
SLURM has assigned the following compute nodes to this run:
chemcompute-node-0
Available scratch disk space (Kbyte units) at beginning of the job is
Filesystem     1K-blocks     Used Available Use% Mounted on
/dev/sda1       62903276 16982280  45920996  27% /
GAMESS temporary binary files will be written to /scratch/331195
GAMESS supplementary output files will be written to /data/slurm/369184
Copying input file 369184.inp to your run's scratch directory...
The generated host list is
chemcompute-node-0.novalocal

 Distributed Data Interface kickoff program.
 Initiating 1 compute processes on 1 nodes to run the following command:
 /data/gamess-2019R1-ddi/gamess.00.x 369184 

          ******************************************************
          *         GAMESS VERSION = 30 JUN 2019 (R1)          *
          *             FROM IOWA STATE UNIVERSITY             *
          * M.W.SCHMIDT, K.K.BALDRIDGE, J.A.BOATZ, S.T.ELBERT, *
          *   M.S.GORDON, J.H.JENSEN, S.KOSEKI, N.MATSUNAGA,   *
          *          K.A.NGUYEN, S.J.SU, T.L.WINDUS,           *
          *       TOGETHER WITH M.DUPUIS, J.A.MONTGOMERY       *
          *         J.COMPUT.CHEM.  14, 1347-1363(1993)        *
          **************** 64 BIT LINUX VERSION ****************

  SINCE 1993, STUDENTS AND POSTDOCS WORKING AT IOWA STATE UNIVERSITY
  AND ALSO IN THEIR VARIOUS JOBS AFTER LEAVING ISU HAVE MADE IMPORTANT
  CONTRIBUTIONS TO THE CODE:
     IVANA ADAMOVIC, CHRISTINE AIKENS, YURI ALEXEEV, POOJA ARORA,
     ANDREY ASADCHEV, ROB BELL, PRADIPTA BANDYOPADHYAY, JONATHAN BENTZ,
     COLLEEN BERTONI, BRETT BODE, KURT BRORSEN, CALEB CARLIN, GALINA CHABAN,
     WEI CHEN, CHEOL HO CHOI, PAUL DAY, ALBERT DEFUSCO, NUWAN DESILVA,
     TIM DUDLEY, DMITRI FEDOROV, ALEX FINDLATER, GRAHAM FLETCHER, 
     MARK FREITAG, KURT GLAESEMANN, ANASTASIA GUNINA,
     DAN KEMP, GRANT MERRILL, NORIYUKI MINEZAWA, JONATHAN MULLIN,
     TAKESHI NAGATA, SEAN NEDD, HEATHER NETZLOFF, BOSILJKA NJEGIC, RYAN OLSON,
     MIKE PAK, BUU PHAM,
     SPENCER PRUITT, LUKE ROSKOP, JIM SHOEMAKER, LYUDMILA SLIPCHENKO,
     TONY SMITH, SAROM SOK LEANG, JIE SONG, TETSUYA TAKETSUGU, SIMON WEBB,
     PENG XU, SOOHAENG YOO, FEDERICO ZAHARIEV

  ADDITIONAL CODE HAS BEEN PROVIDED BY COLLABORATORS IN OTHER GROUPS:
     IOWA STATE UNIVERSITY:
          JOE IVANIC, AARON WEST, LAIMUTIS BYTAUTAS, KLAUS RUEDENBERG
     UNIVERSITY OF TOKYO: KIMIHIKO HIRAO, TAKAHITO NAKAJIMA,
          TAKAO TSUNEDA, MUNEAKI KAMIYA, SUSUMU YANAGISAWA,
          KIYOSHI YAGI, MAHITO CHIBA, SEIKEN TOKURA, NAOAKI KAWAKAMI
     UNIVERSITY OF AARHUS: FRANK JENSEN
     UNIVERSITY OF IOWA: VISVALDAS KAIRYS, HUI LI
     NATIONAL INST. OF STANDARDS AND TECHNOLOGY: WALT STEVENS, DAVID GARMER
     UNIVERSITY OF PISA: BENEDETTA MENNUCCI, JACOPO TOMASI
     UNIVERSITY OF MEMPHIS: HENRY KURTZ, PRAKASHAN KORAMBATH
     UNIVERSITY OF ALBERTA: TOBY ZENG, MARIUSZ KLOBUKOWSKI
     UNIVERSITY OF NEW ENGLAND: MARK SPACKMAN
     MIE UNIVERSITY: HIROAKI UMEDA
     NAT. INST. OF ADVANCED INDUSTRIAL SCIENCE AND TECHNOLOGY: KAZUO KITAURA
     MICHIGAN STATE UNIVERSITY:
          KAROL KOWALSKI, MARTA WLOCH, JEFFREY GOUR, JESSE LUTZ,
          WEI LI, JUN SHEN, J. EMILIANO DEUSTUA, PIOTR PIECUCH
     UNIVERSITY OF MINNESOTA:
          YINAN SHU
     UNIVERSITY OF SILESIA: MONIKA MUSIAL, STANISLAW KUCHARSKI
     FACULTES UNIVERSITAIRES NOTRE-DAME DE LA PAIX:
          OLIVIER QUINET, BENOIT CHAMPAGNE
     UNIVERSITY OF CALIFORNIA - SANTA BARBARA: BERNARD KIRTMAN
     INSTITUTE FOR MOLECULAR SCIENCE:
          KAZUYA ISHIMURA, MICHIO KATOUDA, AND SHIGERU NAGASE
     UNIVERSITY OF NOTRE DAME: ANNA POMOGAEVA, DAN CHIPMAN
     KYUSHU UNIVERSITY:
          HARUYUKI NAKANO,
          FENG LONG GU, JACEK KORCHOWIEC, MARCIN MAKOWSKI, AND YURIKO AOKI,
          HIROTOSHI MORI AND EISAKU MIYOSHI
     PENNSYLVANIA STATE UNIVERSITY:
          TZVETELIN IORDANOV, CHET SWALINA, JONATHAN SKONE,
          SHARON HAMMES-SCHIFFER
     WASEDA UNIVERSITY:
          MASATO KOBAYASHI, TOMOKO AKAMA, TSUGUKI TOUMA,
          TAKESHI YOSHIKAWA, YASUHIRO IKABATA, JUNJI SEINO,
          YUYA NAKAJIMA, HIROMI NAKAI
     NANJING UNIVERSITY: SHUHUA LI
     UNIVERSITY OF NEBRASKA:
          PEIFENG SU, DEJUN SI, NANDUN THELLAMUREGE, YALI WANG, HUI LI
     UNIVERSITY OF ZURICH: ROBERTO PEVERATI, KIM BALDRIDGE
     N. COPERNICUS UNIVERSITY AND JACKSON STATE UNIVERSITY:
          MARIA BARYSZ
     UNIVERSITY OF COPENHAGEN: Jimmy Kromann, CASPER STEINMANN
     TOKYO INSTITUTE OF TECHNOLOGY: HIROYA NAKATA
     NAGOYA UNIVERSITY: YOSHIO NISHIMOTO, STEPHAN IRLE
     MOSCOW STATE UNIVERSITY: VLADIMIR MIRONOV
     A.N.NESMEYANOV INSTITUTE OF ORGANOELEMENT COMPOUNDS OF RUSSIAN ACADEMY OF SCIENCES:
          IGOR S. GERASIMOV

 EXECUTION OF GAMESS BEGUN Wed Dec 22 15:04:53 2021

            ECHO OF THE FIRST FEW INPUT CARDS -
 INPUT CARD>!File created by the GAMESS Input Deck Generator Plugin for Avogadro            
 INPUT CARD> $BASIS GBASIS=STO NGAUSS=3 $END                                                
 INPUT CARD> $CONTRL SCFTYP=RHF RUNTYP=IRC ICHARG=-1 $END                                   
 INPUT CARD> $STATPT  HESS=READ ihrep=5 $END                                                
 INPUT CARD> $irc npoint=100 saddle=.t. tsengy=.t. forwrd=.t. opttol=0.0005 stride=0.1 $end 
 INPUT CARD>                                                                                
 INPUT CARD> $DATA                                                                          
 INPUT CARD>Title                                                                           
 INPUT CARD>C1                                                                              
 INPUT CARD>C     6.0     1.16573179    -0.02006579    -0.09334900                          
 INPUT CARD>C     6.0     2.69111252    -0.40090543    -0.35256091                          
 INPUT CARD>N     7.0     3.20831943    -0.71447140     1.06789064                          
 INPUT CARD>Cl    17.0     3.54361868     1.34013844    -0.63592786                         
 INPUT CARD>H     1.0     0.82660121    -0.29747957     0.90351403                          
 INPUT CARD>H     1.0     0.52244371    -0.54926461    -0.79765922                          
 INPUT CARD>H     1.0     0.94897896     1.03681898    -0.21339175                          
 INPUT CARD>H     1.0     2.73858285    -1.61758494     1.29199588                          
 INPUT CARD>H     1.0     4.18980837    -1.03004837     0.92645228                          
 INPUT CARD> $END                                                                           
 INPUT CARD>                                                                                
 INPUT CARD> $HESS                                                                          
 INPUT CARD>ENERGY IS     -585.8277100311 E(NUC) IS      151.1413480842                     
 INPUT CARD> 1  1 6.37262692E-01 2.84472738E-02 3.81274109E-02-2.14674899E-01 1.55317454E-02
 INPUT CARD> 1  2-5.64336101E-04-3.00513358E-02 9.96370225E-03 5.78362138E-03-1.67063037E-02
 INPUT CARD> 1  3 5.67669871E-03 6.69569800E-03-1.06222152E-01-2.72368241E-02 9.03075692E-02
 INPUT CARD> 1  4-1.88300690E-01-9.69481510E-02-1.26405668E-01-7.96636790E-02 6.09869559E-02
 INPUT CARD> 1  5-9.17401602E-03 4.15734482E-05 2.23912813E-04 4.50565889E-04-1.68507668E-03
 INPUT CARD> 1  6 3.35491326E-03-5.22069563E-03                                             
 INPUT CARD> 2  1 2.84472738E-02 8.08867988E-01-1.76441491E-02 5.54726488E-02-1.01213297E-01
 INPUT CARD> 2  2-1.22708753E-03 7.01281977E-03-2.70536039E-03-8.71373261E-03-2.97974638E-02
 INPUT CARD> 2  3 1.17403406E-03 8.65227429E-03-3.52594360E-02-1.04361804E-01 8.74924847E-02
 INPUT CARD> 2  4-1.10184165E-01-1.66694785E-01-1.11309141E-01 8.15564912E-02-4.36728136E-01
 INPUT CARD> 2  5 3.89475382E-02 8.41618159E-04 5.44528445E-04 1.25138244E-04 1.91012066E-03
 INPUT CARD> 2  6 1.11668400E-03 3.67734239E-03                                             
 INPUT CARD> 3  1 3.81274109E-02-1.76441491E-02 8.06183686E-01 6.17683905E-02-1.21496659E-02
 INPUT CARD> 3  2-1.02768806E-01-4.94836979E-02 1.61696732E-02 7.90609729E-03 6.47717772E-04
 INPUT CARD> 3  3-4.33929023E-03-7.51536730E-05 1.09316491E-01 8.20841481E-02-3.84868579E-01
 INPUT CARD> 3  4-1.42350948E-01-1.10886465E-01-2.33346394E-01-1.28100270E-02 4.35523324E-02
 INPUT CARD> 3  5-8.46825098E-02 1.07701341E-04-3.03880056E-04 9.44287155E-04-5.32315880E-03
 INPUT CARD> 3  6 3.51718083E-03-9.29273229E-03                                             
 INPUT CARD> 4  1-2.14674899E-01 5.54726488E-02 6.17683905E-02 4.08526571E-01-1.75189001E-02
 INPUT CARD> 4  2 3.67629863E-02-1.18724151E-01 6.45974356E-03-6.87294216E-02-4.56216495E-02
 INPUT CARD> 4  3-4.87716238E-02-1.06272660E-02-9.00037866E-03 3.71408111E-03 1.09662804E-03
 INPUT CARD> 4  4-1.31482851E-02 5.27760198E-03 3.43371994E-03-3.09901430E-03-1.03935135E-03
 INPUT CARD> 4  5 1.34169960E-03 6.70893316E-03-1.11200685E-02 2.20908962E-02-1.09671651E-02
 INPUT CARD> 4  6 7.52581098E-03-4.71380220E-02                                             
 INPUT CARD> 5  1 1.55317454E-02-1.01213297E-01-1.21496659E-02-1.75189001E-02 2.73427891E-01
 INPUT CARD> 5  2-2.88074572E-02-8.76393996E-03-6.19564043E-02 1.22122173E-02-1.88328212E-02
 INPUT CARD> 5  3-1.06448460E-01-2.04273871E-02-5.23256924E-03 1.39358920E-03-4.97067109E-04
 INPUT CARD> 5  4-1.39463901E-02 7.78668842E-03 5.56266369E-03 3.56943828E-02-2.34688874E-03
    1000000 WORDS OF MEMORY AVAILABLE

     BASIS OPTIONS
     -------------
     GBASIS=STO          IGAUSS=       3      POLAR=NONE    
     NDFUNC=       0     NFFUNC=       0     DIFFSP=       F
     NPFUNC=       0      DIFFS=       F     BASNAM=        


     RUN TITLE
     ---------
 Title                                                                           

 THE POINT GROUP OF THE MOLECULE IS C1      
 THE ORDER OF THE PRINCIPAL AXIS IS     0

 ATOM      ATOMIC                      COORDINATES (BOHR)
           CHARGE         X                   Y                   Z
 C           6.0     2.2029136583       -0.0379188448       -0.1764040312
 C           6.0     5.0854652649       -0.7576014097       -0.6662435139
 N           7.0     6.0628446038       -1.3501551721        2.0180206945
 CL         17.0     6.6964683102        2.5324944372       -1.2017294034
 H           1.0     1.5620497880       -0.5621548742        1.7073939428
 H           1.0     0.9872754559       -1.0379596077       -1.5073573574
 H           1.0     1.7933102025        1.9593037711       -0.4032519355
 H           1.0     5.1751711812       -3.0567922985        2.4415181905
 H           1.0     7.9175897604       -1.9465091734        1.7507409499

          INTERNUCLEAR DISTANCES (ANGS.)
          ------------------------------

                1 C          2 C          3 N          4 CL         5 H     

   1 C       0.0000000    1.5934290 *  2.4500696 *  2.7926499 *  1.0889003 *
   2 C       1.5934290 *  0.0000000    1.5438618 *  1.9591573 *  2.2505163 *
   3 N       2.4500696 *  1.5438618 *  0.0000000    2.6901384 *  2.4235271 *
   4 CL      2.7926499 *  1.9591573 *  2.6901384 *  0.0000000    3.5261676  
   5 H       1.0889003 *  2.2505163 *  2.4235271 *  3.5261676    0.0000000  
   6 H       1.0908363 *  2.2188392 *  3.2743699    3.5670014    1.7463957 *
   7 H       1.0855402 *  2.2630618 *  3.1326222    2.6462605 *  1.7443645 *
   8 H       2.6353573 *  2.0462477 *  1.0423482 *  3.6212015    2.3556889 *
   9 H       3.3474018    2.0682806 *  1.0406316 *  2.9114220 *  3.4421426  

                6 H          7 H          8 H          9 H     

   1 C       1.0908363 *  1.0855402 *  2.6353573 *  3.3474018  
   2 C       2.2188392 *  2.2630618 *  2.0462477 *  2.0682806 *
   3 N       3.2743699    3.1326222    1.0423482 *  1.0406316 *
   4 CL      3.5670014    2.6462605 *  3.6212015    2.9114220 *
   5 H       1.7463957 *  1.7443645 *  2.3556889 *  3.4421426  
   6 H       0.0000000    1.7432619 *  3.2278847    4.0808427  
   7 H       1.7432619 *  0.0000000    3.5376170    4.0092593  
   8 H       3.2278847    3.5376170    0.0000000    1.6077552 *
   9 H       4.0808427    4.0092593    1.6077552 *  0.0000000  

  * ... LESS THAN  3.000


     ATOMIC BASIS SET
     ----------------
 THE CONTRACTED PRIMITIVE FUNCTIONS HAVE BEEN UNNORMALIZED
 THE CONTRACTED BASIS FUNCTIONS ARE NOW NORMALIZED TO UNITY

  SHELL TYPE  PRIMITIVE        EXPONENT          CONTRACTION COEFFICIENT(S)

 C         

      1   S       1            71.6168373    0.154328967295
      1   S       2            13.0450963    0.535328142282
      1   S       3             3.5305122    0.444634542185

      2   L       4             2.9412494   -0.099967229187    0.155916274999
      2   L       5             0.6834831    0.399512826089    0.607683718598
      2   L       6             0.2222899    0.700115468880    0.391957393099

 C         

      3   S       7            71.6168373    0.154328967295
      3   S       8            13.0450963    0.535328142282
      3   S       9             3.5305122    0.444634542185

      4   L      10             2.9412494   -0.099967229187    0.155916274999
      4   L      11             0.6834831    0.399512826089    0.607683718598
      4   L      12             0.2222899    0.700115468880    0.391957393099

 N         

      5   S      13            99.1061690    0.154328967295
      5   S      14            18.0523124    0.535328142282
      5   S      15             4.8856602    0.444634542185

      6   L      16             3.7804559   -0.099967229187    0.155916274999
      6   L      17             0.8784966    0.399512826089    0.607683718598
      6   L      18             0.2857144    0.700115468880    0.391957393099

 CL        

      7   S      19           601.3456136    0.154328967295
      7   S      20           109.5358542    0.535328142282
      7   S      21            29.6446769    0.444634542185

      8   L      22            38.9604189   -0.099967229187    0.155916274999
      8   L      23             9.0535635    0.399512826089    0.607683718598
      8   L      24             2.9444998    0.700115468880    0.391957393099

      9   L      25             2.2112785   -0.219620369005    0.010587604289
      9   L      26             0.6169411    0.225595433605    0.595167005266
      9   L      27             0.2414666    0.900398426019    0.462001011973

 H         

     10   S      28             3.4252509    0.154328967295
     10   S      29             0.6239137    0.535328142282
     10   S      30             0.1688554    0.444634542185

 H         

     11   S      31             3.4252509    0.154328967295
     11   S      32             0.6239137    0.535328142282
     11   S      33             0.1688554    0.444634542185

 H         

     12   S      34             3.4252509    0.154328967295
     12   S      35             0.6239137    0.535328142282
     12   S      36             0.1688554    0.444634542185

 H         

     13   S      37             3.4252509    0.154328967295
     13   S      38             0.6239137    0.535328142282
     13   S      39             0.1688554    0.444634542185

 H         

     14   S      40             3.4252509    0.154328967295
     14   S      41             0.6239137    0.535328142282
     14   S      42             0.1688554    0.444634542185

 TOTAL NUMBER OF BASIS SET SHELLS             =   14
 NUMBER OF CARTESIAN GAUSSIAN BASIS FUNCTIONS =   29
 NUMBER OF ELECTRONS                          =   42
 CHARGE OF MOLECULE                           =   -1
 SPIN MULTIPLICITY                            =    1
 NUMBER OF OCCUPIED ORBITALS (ALPHA)          =   21
 NUMBER OF OCCUPIED ORBITALS (BETA )          =   21
 TOTAL NUMBER OF ATOMS                        =    9
 THE NUCLEAR REPULSION ENERGY IS      151.1413480842

     $CONTRL OPTIONS
     ---------------
 SCFTYP=RHF          RUNTYP=IRC          EXETYP=RUN     
 MPLEVL=       0     CITYP =NONE         CCTYP =NONE         VBTYP =NONE    
 DFTTYP=NONE         TDDFT =NONE    
 MULT  =       1     ICHARG=      -1     NZVAR =       0     COORD =UNIQUE  
 PP    =NONE         RELWFN=NONE         LOCAL =NONE         NUMGRD=       F
 ISPHER=      -1     NOSYM =       0     MAXIT =      30     UNITS =ANGS    
 PLTORB=       F     MOLPLT=       F     AIMPAC=       F     FRIEND=        
 NPRINT=       7     IREST =       0     GEOM  =INPUT   
 NORMF =       0     NORMP =       0     ITOL  =      20     ICUT  =       9
 INTTYP=BEST         GRDTYP=BEST         QMTTOL= 1.0E-06

     $SYSTEM OPTIONS
     ---------------
  REPLICATED MEMORY=     1000000 WORDS (ON EVERY NODE).
 DISTRIBUTED MEMDDI=           0 MILLION WORDS IN AGGREGATE,
 MEMDDI DISTRIBUTED OVER   1 PROCESSORS IS           0 WORDS/PROCESSOR.
 TOTAL MEMORY REQUESTED ON EACH PROCESSOR=     1000000 WORDS.
 TIMLIM=      525600.00 MINUTES, OR     365.0 DAYS.
 PARALL= F  BALTYP=  DLB     KDIAG=    0  COREFL= F
 MXSEQ2=     300 MXSEQ3=     150  mem10=         0

          ----------------
          PROPERTIES INPUT
          ----------------

     MOMENTS            FIELD           POTENTIAL          DENSITY
 IEMOM =       1   IEFLD =       0   IEPOT =       0   IEDEN =       0
 WHERE =COMASS     WHERE =NUCLEI     WHERE =NUCLEI     WHERE =NUCLEI  
 OUTPUT=BOTH       OUTPUT=BOTH       OUTPUT=BOTH       OUTPUT=BOTH    
 IEMINT=       0   IEFINT=       0                     IEDINT=       0
                                                       MORB  =       0
          EXTRAPOLATION IN EFFECT
          SOSCF IN EFFECT
 ORBITAL PRINTING OPTION: NPREO=     1    29     2     1

     -------------------------------
     INTEGRAL TRANSFORMATION OPTIONS
     -------------------------------
     NWORD  =            0
     CUTOFF = 1.0E-09     MPTRAN =       0
     DIRTRF =       F     AOINTS =DUP     

          ----------------------
          INTEGRAL INPUT OPTIONS
          ----------------------
 NOPK  =       1 NORDER=       0 SCHWRZ=       T

     ------------------------------------------
     THE POINT GROUP IS C1 , NAXIS= 0, ORDER= 1
     ------------------------------------------

     DIMENSIONS OF THE SYMMETRY SUBSPACES ARE
 A   =   29

 ..... DONE SETTING UP THE RUN .....
 STEP CPU TIME =     0.03 TOTAL CPU TIME =          0.0 (      0.0 MIN)
 TOTAL WALL CLOCK TIME=          0.0 SECONDS, CPU UTILIZATION IS    75.00%

          -----------------------------
          INTRINSIC REACTION COORDINATE
          -----------------------------
          PACE   =GS2     
          STRIDE = 0.10000 BOHR*SQRT(AMU)
          NPOINT =     100
          NEXTPT =       0
          STOTAL =  0.0000 BOHR*SQRT(AMU)
          SAB    =  0.0000 BOHR*SQRT(AMU)
          NPRT   =       0
          NPUN   =       0

          SADDLE =       T
          TSENGY =       T
          FORWRD =       T
          EVIB   = 0.00050 HARTREE
          FREQ   =     0.0 CM**-1

          STABLZ =       F
          ELBOW  =  175.00 DEGREES
          DELTA  = 0.02500 BOHR

          READQB =       F
          EB     =        0.0000000000 HARTREES
          GBNORM =        0.0000000000 HARTREES/SQRT(AMU)-BOHR

          GCUT   = 0.0000500 HARTREES/SQRT(AMU)-BOHR
          RCUT   = 0.0005000 BOHR
          ACUT   =    5.00 DEGREES
          MXOPT  =      20
          IHUPD  =       2

 ATOMIC MASSES USED (IN AMU) ARE
     C             12.0000
     C             12.0000
     N             14.0031
     CL            34.9689
     H              1.0078
     H              1.0078
     H              1.0078
     H              1.0078
     H              1.0078

 JUMP AWAY FROM SADDLE POINT WILL BE FOUND FROM THE INPUT HESSIAN MATRIX

 COMPUTING WAVEFUNCTION AT TRANSITION STATE...

          ********************
          1 ELECTRON INTEGRALS
          ********************
 ...... END OF ONE-ELECTRON INTEGRALS ......
 STEP CPU TIME =     0.02 TOTAL CPU TIME =          0.0 (      0.0 MIN)
 TOTAL WALL CLOCK TIME=          0.1 SECONDS, CPU UTILIZATION IS    71.43%

          -------------
          GUESS OPTIONS
          -------------
          GUESS =HUCKEL            NORB  =       0          NORDER=       0
          MIX   =       F          PRTMO =       F          PUNMO =       F
          TOLZ  = 1.0E-08          TOLE  = 1.0E-05
          SYMDEN=       F          PURIFY=       F

 INITIAL GUESS ORBITALS GENERATED BY HUCKEL   ROUTINE.
 HUCKEL GUESS REQUIRES     15702 WORDS.

 SYMMETRIES FOR INITIAL GUESS ORBITALS FOLLOW.   BOTH SET(S).
    21 ORBITALS ARE OCCUPIED (    8 CORE ORBITALS).
     9=A       10=A       11=A       12=A       13=A       14=A       15=A   
    16=A       17=A       18=A       19=A       20=A       21=A       22=A   
    23=A       24=A       25=A       26=A       27=A       28=A       29=A   
 ...... END OF INITIAL ORBITAL SELECTION ......
 STEP CPU TIME =     0.01 TOTAL CPU TIME =          0.1 (      0.0 MIN)
 TOTAL WALL CLOCK TIME=          0.1 SECONDS, CPU UTILIZATION IS    75.00%

                    ----------------------
                    AO INTEGRAL TECHNOLOGY
                    ----------------------
     S,P,L SHELL ROTATED AXIS INTEGRALS, REPROGRAMMED BY
        KAZUYA ISHIMURA (IMS) AND JOSE SIERRA (SYNSTAR).
     S,P,D,L SHELL ROTATED AXIS INTEGRALS PROGRAMMED BY
        KAZUYA ISHIMURA (INSTITUTE FOR MOLECULAR SCIENCE).
     S,P,D,F,G SHELL TO TOTAL QUARTET ANGULAR MOMENTUM SUM 5,
        ERIC PROGRAM BY GRAHAM FLETCHER (ELORET AND NASA ADVANCED
        SUPERCOMPUTING DIVISION, AMES RESEARCH CENTER).
     S,P,D,F,G,L SHELL GENERAL RYS QUADRATURE PROGRAMMED BY
        MICHEL DUPUIS (PACIFIC NORTHWEST NATIONAL LABORATORY).

          --------------------
          2 ELECTRON INTEGRALS
          --------------------

 THE -PK- OPTION IS OFF, THE INTEGRALS ARE NOT IN SUPERMATRIX FORM.
 STORING   15000 INTEGRALS/RECORD ON DISK, USING 12 BYTES/INTEGRAL.
 TWO ELECTRON INTEGRAL EVALUATION REQUIRES   89461 WORDS OF MEMORY.
 SCHWARZ INEQUALITY OVERHEAD:       423 INTEGRALS, T=        0.00
 II,JST,KST,LST =  1  1  1  1 NREC =         1 INTLOC =    1
 II,JST,KST,LST =  2  1  1  1 NREC =         1 INTLOC =    2
 II,JST,KST,LST =  3  1  1  1 NREC =         1 INTLOC =   34
 II,JST,KST,LST =  4  1  1  1 NREC =         1 INTLOC =  133
 II,JST,KST,LST =  5  1  1  1 NREC =         1 INTLOC = 1342
 II,JST,KST,LST =  6  1  1  1 NREC =         1 INTLOC = 1886
 II,JST,KST,LST =  7  1  1  1 NREC =         1 INTLOC = 6706
 II,JST,KST,LST =  8  1  1  1 NREC =         1 INTLOC = 8318
 II,JST,KST,LST =  9  1  1  1 NREC =         2 INTLOC = 3245
 II,JST,KST,LST = 10  1  1  1 NREC =         3 INTLOC = 8894
 II,JST,KST,LST = 11  1  1  1 NREC =         4 INTLOC = 1254
 II,JST,KST,LST = 12  1  1  1 NREC =         4 INTLOC = 9488
 II,JST,KST,LST = 13  1  1  1 NREC =         5 INTLOC = 3859
 II,JST,KST,LST = 14  1  1  1 NREC =         5 INTLOC =14275
 SCHWARZ INEQUALITY TEST SKIPPED         833 INTEGRAL BLOCKS.
 TOTAL NUMBER OF NONZERO TWO-ELECTRON INTEGRALS =               85944
          6 INTEGRAL RECORDS WERE STORED ON DISK FILE  8.
  ...... END OF TWO-ELECTRON INTEGRALS .....
 STEP CPU TIME =     0.03 TOTAL CPU TIME =          0.1 (      0.0 MIN)
 TOTAL WALL CLOCK TIME=          0.1 SECONDS, CPU UTILIZATION IS    69.23%

          --------------------------
                 RHF SCF CALCULATION
          --------------------------

     NUCLEAR ENERGY =       151.1413480842
     MAXIT =   30     NPUNCH=    2
     EXTRAP=T  DAMP=F  SHIFT=F  RSTRCT=F  DIIS=F  DEM=F  SOSCF=T
     DENSITY MATRIX CONV=  1.00E-05
     SOSCF WILL OPTIMIZE     168 ORBITAL ROTATIONS, SOGTOL=   0.250
     MEMORY REQUIRED FOR RHF ITERS=     36965 WORDS.

 ITER EX DEM     TOTAL ENERGY        E CHANGE  DENSITY CHANGE     ORB. GRAD
   1  0  0     -585.4780294094  -585.4780294094   0.539081328   0.000000000
          ---------------START SECOND ORDER SCF---------------
   2  1  0     -585.8039169991    -0.3258875897   0.192662105   0.036519410
   3  2  0     -585.8247926508    -0.0208756517   0.102290666   0.012483301
   4  3  0     -585.8275458945    -0.0027532437   0.010046406   0.003177491
   5  4  0     -585.8276772849    -0.0001313904   0.006787343   0.001298491
   6  5  0     -585.8277090396    -0.0000317547   0.000551592   0.000194623
   7  6  0     -585.8277098692    -0.0000008296   0.000323706   0.000092933
   8  7  0     -585.8277100287    -0.0000001595   0.000025818   0.000011276
   9  8  0     -585.8277100309    -0.0000000022   0.000008800   0.000003608
  10  9  0     -585.8277100311    -0.0000000002   0.000001984   0.000000673

          -----------------
          DENSITY CONVERGED
          -----------------
     TIME TO FORM FOCK OPERATORS=       0.0 SECONDS (       0.0 SEC/ITER)
     TIME TO SOLVE SCF EQUATIONS=       0.0 SECONDS (       0.0 SEC/ITER)

 FINAL RHF ENERGY IS     -585.8277100311 AFTER  10 ITERATIONS

          ------------
          EIGENVECTORS
          ------------

                      1          2          3          4          5
                 -103.2011   -15.0595   -10.7964   -10.6817    -9.9215
                     A          A          A          A          A   
    1  C  1  S    0.000001  -0.000001   0.991969   0.002313   0.000046
    2  C  1  S   -0.000031   0.000274   0.037477  -0.005450   0.000523
    3  C  1  X    0.000007   0.000051  -0.001734  -0.004238  -0.000242
    4  C  1  Y   -0.000009  -0.000129   0.000225   0.000867   0.000078
    5  C  1  Z    0.000002   0.000007   0.000181   0.000416  -0.000008
    6  C  2  S   -0.000044   0.000438  -0.001273   0.992865   0.001713
    7  C  2  S    0.000256  -0.004115  -0.004854   0.029969  -0.005383
    8  C  2  X    0.000116  -0.001271   0.003629  -0.001877  -0.002340
    9  C  2  Y    0.000235   0.000769  -0.000913   0.003104  -0.004687
   10  C  2  Z   -0.000034  -0.003612  -0.000666   0.004720   0.000733
   11  N  3  S    0.000000   0.993518   0.000022   0.000504   0.000023
   12  N  3  S   -0.000022   0.030410   0.000168  -0.004566   0.000334
   13  N  3  X    0.000006   0.000946   0.000173   0.001443  -0.000137
   14  N  3  Y    0.000017  -0.004168  -0.000072  -0.001211  -0.000450
   15  N  3  Z    0.000009  -0.002659  -0.000095   0.003303  -0.000104
   16  CL 4  S    0.994479  -0.000000   0.000007   0.000160  -0.376858
   17  CL 4  S    0.015819   0.000010  -0.000009  -0.000458   1.052652
   18  CL 4  X   -0.000030   0.000003  -0.000017  -0.000189  -0.002399
   19  CL 4  Y   -0.000059   0.000007   0.000000  -0.000362  -0.004501
   20  CL 4  Z    0.000010   0.000018   0.000004   0.000082   0.000851
   21  CL 4  S   -0.001789   0.000101   0.000057  -0.003245   0.045221
   22  CL 4  X    0.000060  -0.000030   0.000060   0.001577  -0.001430
   23  CL 4  Y    0.000118  -0.000103  -0.000037   0.003047  -0.002784
   24  CL 4  Z   -0.000020  -0.000052  -0.000016  -0.000657   0.000490
   25  H  5  S    0.000004  -0.000176  -0.007131   0.000094  -0.000069
   26  H  6  S    0.000006  -0.000056  -0.007154  -0.000112  -0.000105
   27  H  7  S    0.000054   0.000012  -0.007123   0.000076  -0.001129
   28  H  8  S    0.000015  -0.006497  -0.000023  -0.000618  -0.000283
   29  H  9  S    0.000017  -0.006507  -0.000133  -0.000549  -0.000370

                      6          7          8          9         10
                   -7.3628    -7.3596    -7.3594    -0.8653    -0.7124
                     A          A          A          A          A   
    1  C  1  S   -0.000042  -0.000035   0.000019  -0.043089  -0.170112
    2  C  1  S   -0.000423  -0.000492   0.000183   0.114344   0.481878
    3  C  1  X    0.000072   0.000433  -0.000209   0.027305  -0.008293
    4  C  1  Y    0.000059   0.000294  -0.000190  -0.007961   0.009458
    5  C  1  Z    0.000015  -0.000088  -0.000052   0.006655  -0.002892
    6  C  2  S   -0.001352   0.000022  -0.000062  -0.083223  -0.068569
    7  C  2  S    0.007740  -0.000147   0.000415   0.213668   0.197882
    8  C  2  X    0.003114  -0.001841   0.000617   0.010288  -0.065599
    9  C  2  Y    0.006515   0.000676  -0.000134  -0.001599   0.058248
   10  C  2  Z   -0.000850  -0.000592  -0.002054   0.079724  -0.008444
   11  N  3  S   -0.000019   0.000026   0.000060  -0.202678   0.072486
   12  N  3  S   -0.000402   0.000191  -0.000027   0.684974  -0.257875
   13  N  3  X    0.000210  -0.000135  -0.000313   0.008102  -0.041761
   14  N  3  Y    0.000378  -0.000614  -0.000666  -0.085750   0.072780
   15  N  3  Z    0.000179  -0.000004   0.000015  -0.071369  -0.023539
   16  CL 4  S   -0.002379  -0.000025  -0.000043   0.011671   0.041924
   17  CL 4  S    0.006801   0.000071   0.000124  -0.038914  -0.138430
   18  CL 4  X    0.450966   0.861245  -0.181113   0.004120   0.011005
   19  CL 4  Y    0.860287  -0.390355   0.290249   0.009466   0.011397
   20  CL 4  Z   -0.181124   0.290159   0.928064  -0.004039  -0.002026
   21  CL 4  S   -0.003151   0.000001  -0.000112   0.118078   0.452380
   22  CL 4  X    0.021067   0.036434  -0.007581  -0.010932  -0.031797
   23  CL 4  Y    0.040386  -0.016565   0.012418  -0.025485  -0.032029
   24  CL 4  Z   -0.008348   0.012281   0.039176   0.011290   0.005680
   25  H  5  S    0.000056   0.000120   0.000006   0.032577   0.141379
   26  H  6  S    0.000098   0.000097  -0.000119   0.022265   0.146000
   27  H  7  S    0.000677   0.001293  -0.000484   0.023485   0.153108
   28  H  8  S    0.000315  -0.000133  -0.000158   0.161828  -0.085898
   29  H  9  S    0.000221  -0.000535  -0.000094   0.152746  -0.090603

                     11         12         13         14         15
                   -0.6620    -0.4400    -0.3488    -0.3147    -0.3025
                     A          A          A          A          A   
    1  C  1  S    0.121851   0.031422  -0.007258   0.001112   0.000515
    2  C  1  S   -0.350691  -0.086325   0.022603  -0.002012  -0.006654
    3  C  1  X    0.058764   0.291391  -0.038516  -0.080400  -0.123361
    4  C  1  Y    0.010019  -0.077668   0.140806  -0.387776  -0.322903
    5  C  1  Z   -0.014181  -0.020430  -0.225660  -0.340889   0.320515
    6  C  2  S   -0.011586  -0.176467  -0.027632  -0.024083   0.006367
    7  C  2  S    0.041446   0.594382   0.102001   0.087929  -0.020529
    8  C  2  X    0.072713  -0.044251   0.075219  -0.044294   0.088573
    9  C  2  Y    0.042877   0.005931   0.032228  -0.077738  -0.039426
   10  C  2  Z   -0.019236   0.081880  -0.052917  -0.100531   0.070965
   11  N  3  S    0.007193   0.027624  -0.002320   0.013786  -0.001442
   12  N  3  S   -0.024498  -0.099710   0.008472  -0.067771   0.013368
   13  N  3  X    0.020604  -0.163989   0.425100  -0.011453   0.192569
   14  N  3  Y    0.026931   0.157641   0.154440  -0.132531   0.186432
   15  N  3  Z   -0.015273  -0.229399  -0.127145   0.018195  -0.139804
   16  CL 4  S    0.075197  -0.026237  -0.011537   0.005010   0.002994
   17  CL 4  S   -0.247388   0.084719   0.037068  -0.016092  -0.009562
   18  CL 4  X    0.002764   0.023146   0.011411  -0.016218  -0.031625
   19  CL 4  Y    0.009170   0.045091   0.031810  -0.005682   0.003595
   20  CL 4  Z   -0.001743  -0.011011  -0.009849   0.017199  -0.010799
   21  CL 4  S    0.829501  -0.318428  -0.143462   0.062406   0.038300
   22  CL 4  X   -0.008351  -0.072954  -0.036463   0.054318   0.107124
   23  CL 4  Y   -0.026277  -0.142204  -0.103911   0.018245  -0.013448
   24  CL 4  Z    0.005400   0.035082   0.033126  -0.058522   0.037419
   25  H  5  S   -0.130853  -0.106858  -0.229966  -0.187426   0.404302
   26  H  6  S   -0.128051  -0.129140   0.105042   0.460212   0.016388
   27  H  7  S   -0.103402  -0.137994   0.161692  -0.314215  -0.332668
   28  H  8  S   -0.030170  -0.128536  -0.367216   0.101857  -0.277890
   29  H  9  S    0.005195  -0.175061   0.364522  -0.007104   0.165849

                     16         17         18         19         20
                   -0.1928    -0.1660    -0.1184    -0.0683    -0.0633
                     A          A          A          A          A   
    1  C  1  S   -0.030947  -0.021771  -0.024548   0.012148  -0.022733
    2  C  1  S    0.131878   0.094684   0.103050  -0.050702   0.096267
    3  C  1  X    0.353386   0.233944   0.202116  -0.073546   0.138972
    4  C  1  Y   -0.091226  -0.110304   0.003025  -0.046569   0.027317
    5  C  1  Z    0.118832  -0.075969  -0.046519   0.015813  -0.021527
    6  C  2  S   -0.034049   0.056136   0.017023   0.009143  -0.004005
    7  C  2  S    0.121072  -0.231196  -0.092619  -0.035957   0.010821
    8  C  2  X   -0.248837  -0.259808  -0.206568   0.058418  -0.080347
    9  C  2  Y    0.052211   0.209193  -0.194417   0.109267   0.008907
   10  C  2  Z   -0.261397   0.079238   0.229911   0.020988  -0.038966
   11  N  3  S    0.061472  -0.074896   0.014777   0.034434   0.019043
   12  N  3  S   -0.306538   0.370143  -0.077579  -0.174798  -0.093658
   13  N  3  X    0.306593   0.000045   0.050247   0.032294   0.034266
   14  N  3  Y   -0.336140   0.457348  -0.095382  -0.197049  -0.059410
   15  N  3  Z    0.198033   0.486116  -0.340273  -0.079464   0.116555
   16  CL 4  S   -0.001383   0.000938   0.008105  -0.001084   0.000192
   17  CL 4  S    0.004309  -0.002800  -0.024845   0.003062  -0.000590
   18  CL 4  X    0.042198   0.034181  -0.044299   0.139198  -0.229826
   19  CL 4  Y    0.005565  -0.042363  -0.205208  -0.004127   0.078226
   20  CL 4  Z    0.045616  -0.042055  -0.029066  -0.234489  -0.140059
   21  CL 4  S   -0.019626   0.015199   0.118413  -0.019476   0.002602
   22  CL 4  X   -0.145988  -0.120212   0.150198  -0.494747   0.821453
   23  CL 4  Y   -0.017597   0.145830   0.711813   0.020239  -0.280141
   24  CL 4  Z   -0.159610   0.148893   0.104238   0.835889   0.500495
   25  H  5  S    0.111604  -0.075118  -0.111783   0.037387  -0.043072
   26  H  6  S   -0.227401   0.035194  -0.057037   0.061061  -0.063910
   27  H  7  S   -0.116481  -0.120708   0.044566  -0.054442   0.019241
   28  H  8  S    0.107777  -0.157879  -0.100891   0.121778   0.068740
   29  H  9  S    0.303481  -0.034880   0.098741   0.034925   0.034298

                     21         22         23         24         25
                    0.0600     0.6553     0.8390     0.8715     0.8862
                     A          A          A          A          A   
    1  C  1  S    0.029532   0.005637  -0.000813   0.055529  -0.068282
    2  C  1  S   -0.132209  -0.029919   0.005281  -0.331506   0.376325
    3  C  1  X   -0.167401  -0.032080  -0.076502  -0.075832   0.555178
    4  C  1  Y    0.058867   0.207164   0.093831  -0.062644  -0.195495
    5  C  1  Z    0.043999  -0.029788  -0.537021  -0.327594  -0.163661
    6  C  2  S   -0.120161  -0.079164   0.081336   0.013462   0.079755
    7  C  2  S    0.550567   0.366295  -0.415237  -0.073540  -0.436689
    8  C  2  X    0.159458   0.337186  -0.338167  -0.209805   0.560987
    9  C  2  Y   -0.418161   0.834248   0.134281  -0.002799  -0.202227
   10  C  2  Z   -0.508598  -0.114532  -0.603353  -0.104839  -0.066782
   11  N  3  S   -0.018580   0.018574  -0.123099   0.108412  -0.006661
   12  N  3  S    0.110542  -0.118726   0.774361  -0.740043   0.045243
   13  N  3  X   -0.000280   0.048146  -0.052948  -0.254989   0.659684
   14  N  3  Y    0.198530  -0.024164  -0.126345   0.747952   0.301316
   15  N  3  Z    0.338560  -0.038125  -0.547449  -0.248087  -0.175972
   16  CL 4  S   -0.003348  -0.018996   0.002698  -0.000004   0.000924
   17  CL 4  S    0.010784   0.056324  -0.007984   0.000478  -0.002359
   18  CL 4  X   -0.005542  -0.072461  -0.001253   0.002378   0.012839
   19  CL 4  Y   -0.111135  -0.150395   0.018563   0.005622   0.004602
   20  CL 4  Z   -0.053464   0.023456  -0.018533   0.002890   0.001871
   21  CL 4  S   -0.042493  -0.304575   0.044716   0.005562   0.020435
   22  CL 4  X    0.018547   0.286513   0.004006  -0.009542  -0.053181
   23  CL 4  Y    0.403071   0.594313  -0.076392  -0.024639  -0.021214
   24  CL 4  Z    0.196896  -0.093014   0.074787  -0.010112  -0.005459
   25  H  5  S    0.095835   0.132456   0.542642   0.349959   0.059777
   26  H  6  S   -0.092516   0.142258  -0.381929  -0.145853  -0.071740
   27  H  7  S    0.094488  -0.277580  -0.184711   0.166521   0.074129
   28  H  8  S   -0.051016   0.203570  -0.305310   0.795133   0.604078
   29  H  9  S   -0.088042  -0.031499  -0.337412   0.684079  -0.658274

                     26         27         28         29
                    0.9239     0.9628     0.9721     0.9846
                     A          A          A          A   
    1  C  1  S   -0.001497   0.081823  -0.201790   0.078830
    2  C  1  S   -0.021663  -0.492282   1.292199  -0.507951
    3  C  1  X    0.772188  -0.121290  -0.402299   0.063604
    4  C  1  Y    0.526667   0.780270   0.471481   0.212012
    5  C  1  Z    0.050762   0.324721  -0.213038  -0.822856
    6  C  2  S    0.084048  -0.043138   0.010010  -0.066243
    7  C  2  S   -0.456355   0.251430  -0.044114   0.349518
    8  C  2  X    0.405723  -0.587122   0.140811   0.114176
    9  C  2  Y   -0.248093  -0.129147  -0.198437  -0.145235
   10  C  2  Z   -0.247831   0.064833   0.122009   0.627295
   11  N  3  S   -0.000988  -0.001840   0.030722   0.036065
   12  N  3  S    0.001448   0.013135  -0.205470  -0.213166
   13  N  3  X   -0.511958   0.505957  -0.066459   0.167155
   14  N  3  Y   -0.016754   0.171046   0.113878  -0.229227
   15  N  3  Z   -0.032757  -0.121240   0.089886   0.443542
   16  CL 4  S    0.002576   0.003686   0.003365   0.000195
   17  CL 4  S   -0.007325  -0.010425  -0.009856  -0.000616
   18  CL 4  X    0.015135   0.003510   0.019799   0.001462
   19  CL 4  Y    0.013901   0.024871   0.009507   0.001107
   20  CL 4  Z   -0.007705  -0.000146  -0.000449   0.008854
   21  CL 4  S    0.045935   0.065366   0.056109   0.001767
   22  CL 4  X   -0.063433  -0.015255  -0.081117  -0.006002
   23  CL 4  Y   -0.058206  -0.103661  -0.040671  -0.003180
   24  CL 4  Z    0.031566   0.002247   0.002153  -0.037630
   25  H  5  S    0.279242   0.094761  -0.343560   0.941362
   26  H  6  S    0.676789   0.670763  -0.625138  -0.138003
   27  H  7  S   -0.366936  -0.465816  -1.025628  -0.053317
   28  H  8  S   -0.259948   0.361551   0.124400  -0.172207
   29  H  9  S    0.429157  -0.395072   0.145465  -0.068385
 ...... END OF RHF CALCULATION ......
 STEP CPU TIME =     0.05 TOTAL CPU TIME =          0.1 (      0.0 MIN)
 TOTAL WALL CLOCK TIME=          0.2 SECONDS, CPU UTILIZATION IS    77.78%

     ----------------------------------------------------------------
     PROPERTY VALUES FOR THE RHF   SELF-CONSISTENT FIELD WAVEFUNCTION
     ----------------------------------------------------------------

          -----------------
          ENERGY COMPONENTS
          -----------------

         WAVEFUNCTION NORMALIZATION =       1.0000000000

                ONE ELECTRON ENERGY =   -1122.0651698335
                TWO ELECTRON ENERGY =     385.0961117182
           NUCLEAR REPULSION ENERGY =     151.1413480842
                                      ------------------
                       TOTAL ENERGY =    -585.8277100311

 ELECTRON-ELECTRON POTENTIAL ENERGY =     385.0961117182
  NUCLEUS-ELECTRON POTENTIAL ENERGY =   -1701.4943225848
   NUCLEUS-NUCLEUS POTENTIAL ENERGY =     151.1413480842
                                      ------------------
             TOTAL POTENTIAL ENERGY =   -1165.2568627824
               TOTAL KINETIC ENERGY =     579.4291527513
                 VIRIAL RATIO (V/T) =       2.0110428639

          ---------------------------------------
          MULLIKEN AND LOWDIN POPULATION ANALYSES
          ---------------------------------------

     ATOMIC MULLIKEN POPULATION IN EACH MOLECULAR ORBITAL

                      1          2          3          4          5

                  2.000000   2.000000   2.000000   2.000000   2.000000

    1            -0.000000   0.000001   2.003594  -0.000670   0.000000
    2             0.000003  -0.000491  -0.000585   2.001367  -0.000481
    3             0.000000   2.002072  -0.000000  -0.000479  -0.000000
    4             1.999997   0.000000  -0.000000  -0.000200   2.000488
    5             0.000000  -0.000001  -0.001001   0.000001  -0.000000
    6             0.000000  -0.000000  -0.001000  -0.000001  -0.000000
    7             0.000000   0.000000  -0.001008   0.000001  -0.000006
    8             0.000000  -0.000789  -0.000000  -0.000010  -0.000000
    9             0.000000  -0.000793  -0.000000  -0.000008  -0.000001

                      6          7          8          9         10

                  2.000000   2.000000   2.000000   2.000000   2.000000

    1             0.000000  -0.000001  -0.000000   0.063252   0.716371
    2            -0.000404  -0.000014  -0.000016   0.260306   0.199427
    3            -0.000000  -0.000000  -0.000001   1.252753   0.166064
    4             2.000405   2.000019   2.000017   0.046134   0.443506
    5            -0.000000  -0.000000   0.000000   0.010125   0.121560
    6            -0.000000  -0.000000  -0.000000   0.004454   0.131238
    7            -0.000001  -0.000004  -0.000001   0.005106   0.146853
    8            -0.000000  -0.000000  -0.000000   0.186894   0.034041
    9            -0.000000  -0.000001  -0.000000   0.170977   0.040940

                     11         12         13         14         15

                  2.000000   2.000000   2.000000   2.000000   2.000000

    1             0.362388   0.361876   0.252148   0.899405   0.707567
    2             0.063635   0.744268   0.064480   0.090849   0.057931
    3             0.008415   0.371904   0.699549   0.059707   0.267213
    4             1.319774   0.224879   0.062519   0.022897   0.037132
    5             0.093219   0.039110   0.148730   0.091207   0.410629
    6             0.089492   0.055881   0.030625   0.550633   0.000635
    7             0.058324   0.065337   0.073490   0.261085   0.285384
    8             0.004570   0.047269   0.334803   0.024121   0.169189
    9             0.000182   0.089476   0.333656   0.000096   0.064319

                     16         17         18         19         20

                  2.000000   2.000000   2.000000   2.000000   2.000000

    1             0.405292   0.188762   0.109978   0.019520   0.053689
    2             0.418085   0.418062   0.404359   0.044564   0.019068
    3             0.696929   1.174365   0.279129   0.122985   0.044034
    4             0.106077   0.125436   1.139782   1.772414   1.862018
    5             0.025708   0.011965   0.023483   0.002566   0.003159
    6             0.107886   0.002295   0.006212   0.006375   0.006965
    7             0.029141   0.029680   0.003462   0.004851   0.000539
    8             0.025815   0.046705   0.018073   0.024480   0.008214
    9             0.185066   0.002730   0.015522   0.002245   0.002314

                     21

                  2.000000

    1             0.069269
    2             1.289101
    3             0.270297
    4             0.322333
    5             0.012880
    6             0.011370
    7             0.012793
    8             0.002786
    9             0.009172

               ----- POPULATIONS IN EACH AO -----
                             MULLIKEN      LOWDIN
              1  C  1  S      1.99222     1.98561
              2  C  1  S      1.20627     1.04183
              3  C  1  X      1.07562     1.09548
              4  C  1  Y      0.98108     1.01338
              5  C  1  Z      0.95726     0.99360
              6  C  2  S      1.99519     1.99013
              7  C  2  S      1.55418     1.50829
              8  C  2  X      0.73343     0.79342
              9  C  2  Y      0.74778     0.79321
             10  C  2  Z      1.04294     1.09658
             11  N  3  S      1.99595     1.99295
             12  N  3  S      1.65223     1.47810
             13  N  3  X      1.02497     1.05514
             14  N  3  Y      1.31306     1.33609
             15  N  3  Z      1.42873     1.43527
             16  CL 4  S      1.99998     1.99992
             17  CL 4  S      1.99916     1.99893
             18  CL 4  X      1.99846     1.99715
             19  CL 4  Y      1.99388     1.98861
             20  CL 4  Z      1.99974     1.99953
             21  CL 4  S      1.96715     1.94401
             22  CL 4  X      1.90880     1.90693
             23  CL 4  Y      1.63292     1.62568
             24  CL 4  Z      1.98553     1.98498
             25  H  5  S      0.99334     1.01154
             26  H  6  S      1.00306     1.02011
             27  H  7  S      0.97503     0.99648
             28  H  8  S      0.92616     0.96196
             29  H  9  S      0.91589     0.95509

          ----- MULLIKEN ATOMIC OVERLAP POPULATIONS -----
          (OFF-DIAGONAL ELEMENTS NEED TO BE MULTIPLIED BY 2)

             1           2           3           4           5

    1    4.8233972
    2    0.3082683   5.4622549
    3   -0.0287528   0.2654703   6.5827582
    4   -0.0188846   0.1430478  -0.0189791  17.3833793
    5    0.3741226  -0.0136646  -0.0048875   0.0005937   0.6882909
    6    0.3762662  -0.0226634   0.0010136   0.0008931  -0.0275531
    7    0.3778431  -0.0118111   0.0005593  -0.0057812  -0.0231633
    8   -0.0020956  -0.0258632   0.3065391   0.0013388  -0.0005573
    9    0.0022764  -0.0315250   0.3112132   0.0000207   0.0001593

             6           7           8           9

    6    0.7012197
    7   -0.0260347   0.6634244
    8   -0.0000284   0.0000490   0.6847301
    9   -0.0000516  -0.0000586  -0.0379508   0.6718079

          TOTAL MULLIKEN AND LOWDIN ATOMIC POPULATIONS
       ATOM         MULL.POP.    CHARGE          LOW.POP.     CHARGE
    1 C             6.212441   -0.212441         6.129910   -0.129910
    2 C             6.073514   -0.073514         6.181635   -0.181635
    3 N             7.414934   -0.414934         7.297547   -0.297547
    4 CL           17.485629   -0.485629        17.445735   -0.445735
    5 H             0.993341    0.006659         1.011539   -0.011539
    6 H             1.003061   -0.003061         1.020114   -0.020114
    7 H             0.975027    0.024973         0.996478    0.003522
    8 H             0.926162    0.073838         0.961956    0.038044
    9 H             0.915892    0.084108         0.955086    0.044914

          -------------------------------
          BOND ORDER AND VALENCE ANALYSIS     BOND ORDER THRESHOLD=0.050
          -------------------------------

                   BOND                       BOND                       BOND
  ATOM PAIR DIST  ORDER      ATOM PAIR DIST  ORDER      ATOM PAIR DIST  ORDER
    1   2  1.593  0.965        1   5  1.089  0.983        1   6  1.091  0.983
    1   7  1.086  0.985        2   3  1.544  0.922        2   4  1.959  0.731
    3   8  1.042  0.967        3   9  1.041  0.972

                       TOTAL       BONDED        FREE
      ATOM            VALENCE     VALENCE     VALENCE
    1 C                 3.943       3.943      -0.000
    2 C                 2.649       2.649      -0.000
    3 N                 2.892       2.892       0.000
    4 CL                0.775       0.775      -0.000
    5 H                 1.000       1.000      -0.000
    6 H                 1.000       1.000       0.000
    7 H                 0.999       0.999      -0.000
    8 H                 0.995       0.995       0.000
    9 H                 0.993       0.993       0.000

          ---------------------
          ELECTROSTATIC MOMENTS
          ---------------------

 POINT   1           X           Y           Z (BOHR)    CHARGE
                 5.436392    0.710482   -0.254530       -1.00 (A.U.)
         DX          DY          DZ         /D/  (DEBYE)
    -0.703036   -0.561446    0.751659    1.172379
 ...... END OF PROPERTY EVALUATION ......
 STEP CPU TIME =     0.02 TOTAL CPU TIME =          0.2 (      0.0 MIN)
 TOTAL WALL CLOCK TIME=          0.2 SECONDS, CPU UTILIZATION IS    80.00%


 JUMPING OFF SADDLE POINT ALONG THE IMAGINARY NORMAL MODE...

 $HESS GROUP READ FROM CARDS
 ENERGY IS     -585.8277100311 E(NUC) IS      151.1413480842                     
 INITIAL DISPLACEMENT=  0.05 ALONG MODE WITH FREQUENCY=     271.318 I CM**-1
 THE COMPONENTS OF THE DISPLACEMENT ARE (BOHR) -
    0.000038   0.000011  -0.000056
    0.000077  -0.000292   0.000564
   -0.000065   0.001201   0.001029
   -0.000086  -0.000455  -0.000681
   -0.005720  -0.026288  -0.009404
    0.001888   0.021203  -0.017597
    0.003740   0.004078   0.028173
    0.001928   0.000100   0.000746
    0.000670   0.003364   0.001381

 *********************************************
 ***** STARTING CONSTRAINED OPTIMIZATION *****
 *** TO FIND THE NEXT REACTION PATH POINT ****
 *********************************************
 CONSTRAINED OPTIMIZATION POINT   1 FOR PATH POINT   1
 COORDINATES OF SYMMETRY UNIQUE ATOMS (ANGS)
   ATOM   CHARGE       X              Y              Z
 ------------------------------------------------------------
 C           6.0   1.1657724749  -0.0200540658  -0.0934081937
 C           6.0   2.6911935790  -0.4012146320  -0.3519639891
 N           7.0   3.2082508452  -0.7132005283   1.0689796428
 CL         17.0   3.5435278890   1.3396566279  -0.6366491124
 H           1.0   0.8205470202  -0.3253012946   0.8935612064
 H           1.0   0.5244423552  -0.5268246439  -0.8162830129
 H           1.0   0.9529377241   1.0411345671  -0.1835742718
 H           1.0   2.7406236097  -1.6174786277   1.2927852258
 H           1.0   4.1905177322  -1.0264879866   0.9279142897
 ...... END OF ONE-ELECTRON INTEGRALS ......
 STEP CPU TIME =     0.00 TOTAL CPU TIME =          0.2 (      0.0 MIN)
 TOTAL WALL CLOCK TIME=          0.2 SECONDS, CPU UTILIZATION IS    76.19%
 TOTAL NUMBER OF NONZERO TWO-ELECTRON INTEGRALS =               85954
          6 INTEGRAL RECORDS WERE STORED ON DISK FILE  8.
  ...... END OF TWO-ELECTRON INTEGRALS .....
 STEP CPU TIME =     0.04 TOTAL CPU TIME =          0.2 (      0.0 MIN)
 TOTAL WALL CLOCK TIME=          0.2 SECONDS, CPU UTILIZATION IS    83.33%

          --------------------------
                 RHF SCF CALCULATION
          --------------------------
     DENSITY MATRIX CONV=  1.00E-05

 ITER EX DEM     TOTAL ENERGY        E CHANGE  DENSITY CHANGE     ORB. GRAD
          ---------------START SECOND ORDER SCF---------------
   1  0  0     -585.8275216499  -585.8275216499   0.011480247   0.003784020
   2  1  0     -585.8277010180    -0.0001793681   0.005548542   0.001215371
   3  2  0     -585.8277224526    -0.0000214347   0.000129091   0.000052973
   4  3  0     -585.8277224803    -0.0000000277   0.000152731   0.000030448
   5  4  0     -585.8277224907    -0.0000000104   0.000019543   0.000004100
   6  5  0     -585.8277224911    -0.0000000004   0.000010634   0.000001712
   7  6  0     -585.8277224912    -0.0000000001   0.000001610   0.000000392

          -----------------
          DENSITY CONVERGED
          -----------------
     TIME TO FORM FOCK OPERATORS=       0.0 SECONDS (       0.0 SEC/ITER)
     TIME TO SOLVE SCF EQUATIONS=       0.0 SECONDS (       0.0 SEC/ITER)

 FINAL RHF ENERGY IS     -585.8277224912 AFTER   7 ITERATIONS
 ...... END OF RHF CALCULATION ......
 STEP CPU TIME =     0.04 TOTAL CPU TIME =          0.2 (      0.0 MIN)
 TOTAL WALL CLOCK TIME=          0.3 SECONDS, CPU UTILIZATION IS    82.76%
 ..... END OF 1-ELECTRON GRADIENT ......
 STEP CPU TIME =     0.01 TOTAL CPU TIME =          0.2 (      0.0 MIN)
 TOTAL WALL CLOCK TIME=          0.3 SECONDS, CPU UTILIZATION IS    83.33%
 ...... END OF 2-ELECTRON GRADIENT ......
 STEP CPU TIME =     0.05 TOTAL CPU TIME =          0.3 (      0.0 MIN)
 TOTAL WALL CLOCK TIME=          0.3 SECONDS, CPU UTILIZATION IS    88.24%

 UNITS ARE HARTREE/BOHR    E'X               E'Y               E'Z 
    1 C                0.000084471      -0.000034327      -0.000096581
    2 C                0.000024011       0.000031377      -0.000013150
    3 N               -0.000070549       0.000316311      -0.000166561
    4 CL              -0.000005110       0.000053963       0.000155133
    5 H               -0.000025068       0.000087063       0.000203151
    6 H               -0.000009363      -0.000154281       0.000047387
    7 H               -0.000024562       0.000081125      -0.000141561
    8 H               -0.000244098      -0.000287026       0.000095723
    9 H                0.000270268      -0.000094206      -0.000083540

 CURRENT OPTIMIZATION POINT :
 ENERGY                                 =  -585.8277225 HARTREE
 MASS WEIGHTED TANGENT GRADIENT NORM    =     0.0005378 HARTREE/BOHR-SQRT(AMU)
 NEXT GEOMETRY STEP HAS PREDICTED ANGLE =         7.361 DEGREES
 AND CARTESIAN RMS DISPLACEMENT         =     0.0061808 BOHR

 CONSTRAINED OPTIMIZATION POINT   2 FOR PATH POINT   1
 COORDINATES OF SYMMETRY UNIQUE ATOMS (ANGS)
   ATOM   CHARGE       X              Y              Z
 ------------------------------------------------------------
 C           6.0   1.1657197130  -0.0199745692  -0.0934074314
 C           6.0   2.6911343301  -0.4012490326  -0.3519920794
 N           7.0   3.2081233896  -0.7133272943   1.0690828088
 CL         17.0   3.5435569699   1.3396506731  -0.6366658452
 H           1.0   0.8207457420  -0.3249224967   0.8935161460
 H           1.0   0.5241647720  -0.5267335647  -0.8159989403
 H           1.0   0.9529383919   1.0410824751  -0.1838067312
 H           1.0   2.7424762595  -1.6185086515   1.2917065796
 H           1.0   4.1908388508  -1.0244447512   0.9284589312
 ...... END OF ONE-ELECTRON INTEGRALS ......
 STEP CPU TIME =     0.00 TOTAL CPU TIME =          0.3 (      0.0 MIN)
 TOTAL WALL CLOCK TIME=          0.3 SECONDS, CPU UTILIZATION IS    85.71%
 TOTAL NUMBER OF NONZERO TWO-ELECTRON INTEGRALS =               85955
          6 INTEGRAL RECORDS WERE STORED ON DISK FILE  8.
  ...... END OF TWO-ELECTRON INTEGRALS .....
 STEP CPU TIME =     0.02 TOTAL CPU TIME =          0.3 (      0.0 MIN)
 TOTAL WALL CLOCK TIME=          0.4 SECONDS, CPU UTILIZATION IS    86.49%

          --------------------------
                 RHF SCF CALCULATION
          --------------------------
     DENSITY MATRIX CONV=  1.00E-05

 ITER EX DEM     TOTAL ENERGY        E CHANGE  DENSITY CHANGE     ORB. GRAD
          ---------------START SECOND ORDER SCF---------------
   1  0  0     -585.8277215307  -585.8277215307   0.001035750   0.000289500
   2  1  0     -585.8277227252    -0.0000011944   0.000638754   0.000129172
   3  2  0     -585.8277229436    -0.0000002185   0.000037809   0.000009777
   4  3  0     -585.8277229459    -0.0000000023   0.000018642   0.000004927
   5  4  0     -585.8277229463    -0.0000000003   0.000001117   0.000000347
   6  5  0     -585.8277229463    -0.0000000000   0.000000712   0.000000190

          -----------------
          DENSITY CONVERGED
          -----------------
     TIME TO FORM FOCK OPERATORS=       0.0 SECONDS (       0.0 SEC/ITER)
     TIME TO SOLVE SCF EQUATIONS=       0.0 SECONDS (       0.0 SEC/ITER)

 FINAL RHF ENERGY IS     -585.8277229463 AFTER   6 ITERATIONS
 ...... END OF RHF CALCULATION ......
 STEP CPU TIME =     0.03 TOTAL CPU TIME =          0.3 (      0.0 MIN)
 TOTAL WALL CLOCK TIME=          0.4 SECONDS, CPU UTILIZATION IS    87.50%
 ..... END OF 1-ELECTRON GRADIENT ......
 STEP CPU TIME =     0.01 TOTAL CPU TIME =          0.4 (      0.0 MIN)
 TOTAL WALL CLOCK TIME=          0.4 SECONDS, CPU UTILIZATION IS    90.00%
 ...... END OF 2-ELECTRON GRADIENT ......
 STEP CPU TIME =     0.04 TOTAL CPU TIME =          0.4 (      0.0 MIN)
 TOTAL WALL CLOCK TIME=          0.4 SECONDS, CPU UTILIZATION IS    90.91%

 UNITS ARE HARTREE/BOHR    E'X               E'Y               E'Z 
    1 C               -0.000001018      -0.000010177       0.000005829
    2 C                0.000001627       0.000021167      -0.000032821
    3 N                0.000020610      -0.000064449      -0.000092027
    4 CL               0.000005664       0.000086264       0.000134852
    5 H                0.000029938       0.000135823       0.000042646
    6 H               -0.000005204      -0.000106692       0.000090664
    7 H               -0.000019155      -0.000025705      -0.000143036
    8 H               -0.000032801       0.000003631       0.000007827
    9 H                0.000000339      -0.000039861      -0.000013934

 ANGLE TO PREVIOUS OPTIMIZATION POINT IS   7.361
 LINEAR INTERPOLATION GIVES ANGLE          7.442

 CURRENT OPTIMIZATION POINT :
 ENERGY                                 =  -585.8277229 HARTREE
 MASS WEIGHTED TANGENT GRADIENT NORM    =     0.0000152 HARTREE/BOHR-SQRT(AMU)
 NEXT GEOMETRY STEP HAS PREDICTED ANGLE =         0.092 DEGREES
 AND CARTESIAN RMS DISPLACEMENT         =     0.0000656 BOHR

 *******************************************
 ***** END OF CONSTRAINED OPTIMIZATION *****
 *******************************************

 ANGLE BETWEEN GRADIENTS AT CURRENT AND PREVIOUS IRC POINT =   7.442
 ENERGY WAS LOWERED BY      0.0000004551 HARTREE DURING OPTIMIZATION

 ***** NEXT POINT ON IRC FOUND *****
 STEP DISTANCE IS   0.09979 SQRT(AMU)-BOHR)

1         POINT   1 ON THE REACTION PATH
          ******************************
          AT PATH DISTANCE STOTAL =   0.09979     SQRT(AMU)-BOHR
          TOTAL ENERGY            =  -585.8277229 HARTREE
            2 CONSTRAINED OPTIMIZATION STEPS WERE PERFORMED
  
 COORDINATES OF ALL ATOMS ARE (ANGS)
   ATOM   CHARGE       X              Y              Z
 ------------------------------------------------------------
 C           6.0   1.1657197130  -0.0199745692  -0.0934074314
 C           6.0   2.6911343301  -0.4012490326  -0.3519920794
 N           7.0   3.2081233896  -0.7133272943   1.0690828088
 CL         17.0   3.5435569699   1.3396506731  -0.6366658452
 H           1.0   0.8207457420  -0.3249224967   0.8935161460
 H           1.0   0.5241647720  -0.5267335647  -0.8159989403
 H           1.0   0.9529383919   1.0410824751  -0.1838067312
 H           1.0   2.7424762595  -1.6185086515   1.2917065796
 H           1.0   4.1908388508  -1.0244447512   0.9284589312
  

          INTERNUCLEAR DISTANCES (ANGS.)
          ------------------------------

                1 C          2 C          3 N          4 CL         5 H     

   1 C       0.0000000    1.5934635 *  2.4502111 *  2.7924578 *  1.0890447 *
   2 C       1.5934635 *  0.0000000    1.5440610 *  1.9591823 *  2.2484372 *
   3 N       2.4502111 *  1.5440610 *  0.0000000    2.6901325 *  2.4251297 *
   4 CL      2.7924578 *  1.9591823 *  2.6901325 *  0.0000000    3.5392035  
   5 H       1.0890447 *  2.2484372 *  2.4251297 *  3.5392035    0.0000000  
   6 H       1.0911168 *  2.2196409 *  3.2851156    3.5541919    1.7467484 *
   7 H       1.0859512 *  2.2649352 *  3.1198630    2.6467960 *  1.7447261 *
   8 H       2.6381837 *  2.0459966 *  1.0419894 *  3.6209194    2.3505252 *
   9 H       3.3473149    2.0681009 *  1.0403359 *  2.9081844 *  3.4421040  

                6 H          7 H          8 H          9 H     

   1 C       1.0911168 *  1.0859512 *  2.6381837 *  3.3473149  
   2 C       2.2196409 *  2.2649352 *  2.0459966 *  2.0681009 *
   3 N       3.2851156    3.1198630    1.0419894 *  1.0403359 *
   4 CL      3.5541919    2.6467960 *  3.6209194    2.9081844 *
   5 H       1.7467484 *  1.7447261 *  2.3505252 *  3.4421040  
   6 H       0.0000000    1.7440072 *  3.2488923    4.0908860  
   7 H       1.7440072 *  0.0000000    3.5288823    3.9984418  
   8 H       3.2488923    3.5288823    0.0000000    1.6070516 *
   9 H       4.0908860    3.9984418    1.6070516 *  0.0000000  

  * ... LESS THAN  3.000


          CURRENT CARTESIAN GRADIENT
          ATOM               DE/DX          DE/DY          DE/DZ
          -----------------------------------------------------------
          C               -0.0000019584  -0.0000099115   0.0000069553
          C                0.0000013805   0.0000210547  -0.0000330369
          N                0.0000216134  -0.0000686388  -0.0000912071
          CL               0.0000057824   0.0000866193   0.0001346285
          H                0.0000305434   0.0001363594   0.0000408803
          H               -0.0000051586  -0.0001061680   0.0000911403
          H               -0.0000190959  -0.0000268808  -0.0001430524
          H               -0.0000304761   0.0000068291   0.0000068601
          H               -0.0000026310  -0.0000392633  -0.0000131681
  
 CONVERGED ORBITALS AT IRC POINT                    1

                      1          2          3          4          5
                 -103.2013   -15.0593   -10.7965   -10.6817    -9.9216
                     A          A          A          A          A   
    1  C  1  S   -0.000001  -0.000000  -0.991971   0.002312  -0.000047
    2  C  1  S    0.000031   0.000270  -0.037466  -0.005450  -0.000522
    3  C  1  X   -0.000007   0.000050   0.001731  -0.004237   0.000239
    4  C  1  Y    0.000009  -0.000131  -0.000217   0.000870  -0.000079
    5  C  1  Z   -0.000001   0.000000  -0.000192   0.000414  -0.000010
    6  C  2  S    0.000044   0.000438   0.001272   0.992865  -0.001714
    7  C  2  S   -0.000256  -0.004113   0.004853   0.029966   0.005382
    8  C  2  X   -0.000116  -0.001271  -0.003629  -0.001878   0.002340
    9  C  2  Y   -0.000235   0.000764   0.000914   0.003111   0.004686
   10  C  2  Z    0.000034  -0.003612   0.000664   0.004714  -0.000736
   11  N  3  S   -0.000000   0.993518  -0.000022   0.000504  -0.000023
   12  N  3  S    0.000022   0.030416  -0.000164  -0.004563  -0.000336
   13  N  3  X   -0.000006   0.000970  -0.000176   0.001443   0.000134
   14  N  3  Y   -0.000017  -0.004167   0.000072  -0.001207   0.000451
   15  N  3  Z   -0.000009  -0.002661   0.000097   0.003303   0.000103
   16  CL 4  S   -0.994479  -0.000000  -0.000007   0.000160   0.376858
   17  CL 4  S   -0.015819   0.000010   0.000009  -0.000458  -1.052653
   18  CL 4  X    0.000030   0.000003   0.000017  -0.000189   0.002397
   19  CL 4  Y    0.000060   0.000007  -0.000000  -0.000362   0.004503
   20  CL 4  Z   -0.000010   0.000018  -0.000004   0.000082  -0.000853
   21  CL 4  S    0.001789   0.000101  -0.000056  -0.003245  -0.045220
   22  CL 4  X   -0.000060  -0.000030  -0.000061   0.001577   0.001430
   23  CL 4  Y   -0.000118  -0.000103   0.000036   0.003047   0.002784
   24  CL 4  Z    0.000020  -0.000051   0.000013  -0.000659  -0.000492
   25  H  5  S   -0.000004  -0.000166   0.007132   0.000092   0.000075
   26  H  6  S   -0.000005  -0.000061   0.007149  -0.000112   0.000098
   27  H  7  S   -0.000054   0.000014   0.007116   0.000077   0.001128
   28  H  8  S   -0.000015  -0.006501   0.000014  -0.000619   0.000283
   29  H  9  S   -0.000017  -0.006510   0.000134  -0.000549   0.000375

                      6          7          8          9         10
                   -7.3630    -7.3598    -7.3596    -0.8653    -0.7123
                     A          A          A          A          A   
    1  C  1  S    0.000043  -0.000036   0.000017  -0.043030  -0.169876
    2  C  1  S    0.000421  -0.000485   0.000194   0.114196   0.481259
    3  C  1  X   -0.000070   0.000430  -0.000209   0.027291  -0.008086
    4  C  1  Y   -0.000058   0.000299  -0.000176  -0.007998   0.009307
    5  C  1  Z   -0.000003  -0.000109  -0.000046   0.006699  -0.002708
    6  C  2  S    0.001352   0.000022  -0.000061  -0.083180  -0.068647
    7  C  2  S   -0.007740  -0.000147   0.000412   0.213562   0.198134
    8  C  2  X   -0.003114  -0.001840   0.000617   0.010309  -0.065485
    9  C  2  Y   -0.006514   0.000675  -0.000139  -0.001487   0.058323
   10  C  2  Z    0.000856  -0.000593  -0.002053   0.079668  -0.008490
   11  N  3  S    0.000019   0.000026   0.000060  -0.202686   0.072461
   12  N  3  S    0.000403   0.000194  -0.000027   0.684943  -0.257750
   13  N  3  X   -0.000208  -0.000132  -0.000312   0.008656  -0.041997
   14  N  3  Y   -0.000379  -0.000614  -0.000666  -0.085756   0.072741
   15  N  3  Z   -0.000179  -0.000004   0.000015  -0.071395  -0.023617
   16  CL 4  S    0.002380  -0.000025  -0.000043   0.011680   0.042066
   17  CL 4  S   -0.006803   0.000069   0.000124  -0.038943  -0.138899
   18  CL 4  X   -0.450807   0.861171  -0.181858   0.004118   0.011011
   19  CL 4  Y   -0.860315  -0.389872   0.290818   0.009467   0.011423
   20  CL 4  Z    0.181391   0.291027   0.927740  -0.004050  -0.002045
   21  CL 4  S    0.003151   0.000001  -0.000110   0.118169   0.453955
   22  CL 4  X   -0.021060   0.036430  -0.007614  -0.010927  -0.031816
   23  CL 4  Y   -0.040387  -0.016544   0.012441  -0.025488  -0.032109
   24  CL 4  Z    0.008362   0.012317   0.039162   0.011318   0.005732
   25  H  5  S   -0.000063   0.000128   0.000006   0.032558   0.141312
   26  H  6  S   -0.000090   0.000091  -0.000114   0.022131   0.145748
   27  H  7  S   -0.000675   0.001279  -0.000512   0.023520   0.152686
   28  H  8  S   -0.000315  -0.000133  -0.000159   0.161888  -0.086014
   29  H  9  S   -0.000224  -0.000542  -0.000095   0.152828  -0.090558

                     11         12         13         14         15
                   -0.6621    -0.4400    -0.3488    -0.3146    -0.3022
                     A          A          A          A          A   
    1  C  1  S   -0.122162   0.031501  -0.007354   0.001060  -0.000588
    2  C  1  S    0.351611  -0.086617   0.023009  -0.001822   0.006955
    3  C  1  X   -0.058678   0.291405  -0.038027  -0.080077   0.123339
    4  C  1  Y   -0.010132  -0.077712   0.143006  -0.384712   0.325818
    5  C  1  Z    0.014295  -0.020385  -0.223884  -0.344637  -0.317796
    6  C  2  S    0.011388  -0.176477  -0.027455  -0.024319  -0.006310
    7  C  2  S   -0.040859   0.594453   0.101367   0.088812   0.020374
    8  C  2  X   -0.072855  -0.044202   0.075212  -0.044150  -0.087940
    9  C  2  Y   -0.042747   0.006036   0.033009  -0.077193   0.039764
   10  C  2  Z    0.019286   0.081822  -0.052240  -0.101551  -0.070110
   11  N  3  S   -0.007106   0.027569  -0.002403   0.013780   0.001262
   12  N  3  S    0.024193  -0.099448   0.008882  -0.067783  -0.012493
   13  N  3  X   -0.020689  -0.164270   0.424362  -0.010005  -0.192958
   14  N  3  Y   -0.026799   0.157163   0.156986  -0.132454  -0.186233
   15  N  3  Z    0.015172  -0.229361  -0.126418   0.018607   0.139239
   16  CL 4  S   -0.075120  -0.026223  -0.011571   0.004943  -0.003001
   17  CL 4  S    0.247134   0.084672   0.037176  -0.015878   0.009586
   18  CL 4  X   -0.002729   0.023167   0.011442  -0.016089   0.031668
   19  CL 4  Y   -0.009145   0.045104   0.031892  -0.005335  -0.003520
   20  CL 4  Z    0.001744  -0.011023  -0.010059   0.017357   0.010596
   21  CL 4  S   -0.828683  -0.318274  -0.143864   0.061570  -0.038388
   22  CL 4  X    0.008241  -0.073024  -0.036574   0.053884  -0.107288
   23  CL 4  Y    0.026210  -0.142251  -0.104184   0.017096   0.013197
   24  CL 4  Z   -0.005407   0.035122   0.033834  -0.059058  -0.036736
   25  H  5  S    0.131523  -0.106625  -0.230704  -0.178317  -0.408891
   26  H  6  S    0.127957  -0.129772   0.109042   0.458355  -0.006785
   27  H  7  S    0.103628  -0.137848   0.158349  -0.321652   0.328122
   28  H  8  S    0.030007  -0.128555  -0.367444   0.101368   0.277550
   29  H  9  S   -0.005444  -0.174890   0.364339  -0.006296  -0.166898

                     16         17         18         19         20
                   -0.1928    -0.1662    -0.1183    -0.0684    -0.0634
                     A          A          A          A          A   
    1  C  1  S   -0.030912   0.021785   0.024504  -0.012072   0.022781
    2  C  1  S    0.131691  -0.094774  -0.102840   0.050444  -0.096423
    3  C  1  X    0.353332  -0.234025  -0.201906   0.072759  -0.139823
    4  C  1  Y   -0.090947   0.110034  -0.002795   0.047390  -0.027192
    5  C  1  Z    0.117515   0.076000   0.046932  -0.014597   0.020608
    6  C  2  S   -0.033970  -0.056271  -0.016673  -0.009170   0.004047
    7  C  2  S    0.120740   0.231753   0.091190   0.036121  -0.010972
    8  C  2  X   -0.248780   0.260299   0.206264  -0.057742   0.080935
    9  C  2  Y    0.052408  -0.208553   0.194938  -0.109339  -0.008549
   10  C  2  Z   -0.261825  -0.079781  -0.229013  -0.020719   0.039197
   11  N  3  S    0.061376   0.074987  -0.015020  -0.034425  -0.018888
   12  N  3  S   -0.306136  -0.370564   0.078810   0.174723   0.092886
   13  N  3  X    0.307640   0.002923  -0.051355  -0.033208  -0.034097
   14  N  3  Y   -0.334836  -0.457132   0.096491   0.196367   0.058416
   15  N  3  Z    0.199097  -0.485420   0.340980   0.078428  -0.117541
   16  CL 4  S   -0.001421  -0.000986  -0.008089   0.001077  -0.000192
   17  CL 4  S    0.004428   0.002950   0.024796  -0.003043   0.000589
   18  CL 4  X    0.042526  -0.033976   0.044482  -0.138045   0.230453
   19  CL 4  Y    0.005695   0.042882   0.205202   0.004071  -0.078225
   20  CL 4  Z    0.045632   0.041779   0.028773   0.235272   0.138910
   21  CL 4  S   -0.020125  -0.015851  -0.118203   0.019380  -0.002630
   22  CL 4  X   -0.147120   0.119515  -0.150852   0.490637  -0.823693
   23  CL 4  Y   -0.018030  -0.147608  -0.711824  -0.020018   0.280165
   24  CL 4  Z   -0.159672  -0.147928  -0.103212  -0.838691  -0.496400
   25  H  5  S    0.109384   0.073129   0.113409  -0.039311   0.044631
   26  H  6  S   -0.230973  -0.034375   0.054506  -0.059302   0.063196
   27  H  7  S   -0.110632   0.122252  -0.043745   0.054783  -0.019875
   28  H  8  S    0.108263   0.158078   0.100097  -0.121930  -0.068357
   29  H  9  S    0.303050   0.035136  -0.099096  -0.034702  -0.034098

                     21         22         23         24         25
                    0.0599     0.6551     0.8394     0.8718     0.8865
                     A          A          A          A          A   
    1  C  1  S    0.029550   0.005595   0.001577   0.055969   0.068204
    2  C  1  S   -0.132265  -0.029768  -0.009537  -0.334485  -0.375579
    3  C  1  X   -0.167650  -0.031334   0.072748  -0.069425  -0.560278
    4  C  1  Y    0.058425   0.208102  -0.093265  -0.053877   0.192133
    5  C  1  Z    0.044685  -0.028442   0.539630  -0.325452   0.163470
    6  C  2  S   -0.120161  -0.079152  -0.082155   0.013259  -0.078909
    7  C  2  S    0.550590   0.366233   0.419625  -0.072509   0.432389
    8  C  2  X    0.159652   0.337775   0.333498  -0.206452  -0.568653
    9  C  2  Y   -0.418872   0.833397  -0.131586  -0.007018   0.206728
   10  C  2  Z   -0.508080  -0.115729   0.605696  -0.100913   0.056541
   11  N  3  S   -0.018630   0.018550   0.122613   0.109170   0.005651
   12  N  3  S    0.110807  -0.118527  -0.771011  -0.745132  -0.039142
   13  N  3  X   -0.001272   0.048601   0.047091  -0.254280  -0.658199
   14  N  3  Y    0.198711  -0.023384   0.118056   0.749733  -0.300949
   15  N  3  Z    0.339241  -0.037560   0.550774  -0.244704   0.165048
   16  CL 4  S   -0.003345  -0.018994  -0.002666  -0.000006  -0.000922
   17  CL 4  S    0.010776   0.056319   0.007878   0.000494   0.002349
   18  CL 4  X   -0.005558  -0.072457   0.001393   0.002419  -0.012914
   19  CL 4  Y   -0.110900  -0.150408  -0.018570   0.005736  -0.004571
   20  CL 4  Z   -0.053306   0.023447   0.018530   0.003060  -0.002076
   21  CL 4  S   -0.042455  -0.304520  -0.044382   0.005634  -0.020386
   22  CL 4  X    0.018607   0.286485  -0.004515  -0.009741   0.053502
   23  CL 4  Y    0.402223   0.594341   0.076465  -0.025116   0.021067
   24  CL 4  Z    0.196317  -0.092995  -0.074810  -0.010771   0.006294
   25  H  5  S    0.092230   0.139193  -0.540208   0.347096  -0.058174
   26  H  6  S   -0.092352   0.136344   0.396045  -0.139053   0.065869
   27  H  7  S    0.098011  -0.278001   0.169356   0.170058  -0.074719
   28  H  8  S   -0.051537   0.203462   0.294754   0.800005  -0.600911
   29  H  9  S   -0.087684  -0.032157   0.339931   0.683056   0.655830

                     26         27         28         29
                    0.9236     0.9632     0.9714     0.9841
                     A          A          A          A   
    1  C  1  S   -0.002539   0.084512   0.198572   0.083680
    2  C  1  S   -0.014818  -0.509669  -1.271719  -0.538600
    3  C  1  X    0.767637  -0.113730   0.406765   0.069099
    4  C  1  Y    0.529145   0.769531  -0.487756   0.212626
    5  C  1  Z    0.056413   0.337067   0.220886  -0.814372
    6  C  2  S    0.083859  -0.042904  -0.007300  -0.066993
    7  C  2  S   -0.455095   0.250088   0.029270   0.353588
    8  C  2  X    0.403583  -0.588705  -0.130544   0.104950
    9  C  2  Y   -0.248524  -0.125462   0.202707  -0.140416
   10  C  2  Z   -0.248368   0.059148  -0.137803   0.623957
   11  N  3  S   -0.001597  -0.003308  -0.031574   0.034821
   12  N  3  S    0.005656   0.023135   0.210464  -0.204857
   13  N  3  X   -0.513813   0.508583   0.052653   0.165803
   14  N  3  Y   -0.023679   0.167455  -0.111714  -0.234261
   15  N  3  Z   -0.032268  -0.123653  -0.097790   0.442503
   16  CL 4  S    0.002613   0.003658  -0.003406   0.000109
   17  CL 4  S   -0.007441  -0.010351   0.009969  -0.000356
   18  CL 4  X    0.015278   0.003286  -0.019688   0.000729
   19  CL 4  Y    0.013967   0.024707  -0.009872   0.001057
   20  CL 4  Z   -0.007940  -0.000410   0.000443   0.008798
   21  CL 4  S    0.046469   0.064826  -0.056846   0.000409
   22  CL 4  X   -0.063995  -0.014319   0.080689  -0.003055
   23  CL 4  Y   -0.058469  -0.102972   0.042160  -0.002932
   24  CL 4  Z    0.032471   0.003288  -0.002084  -0.037421
   25  H  5  S    0.289107   0.110350   0.318782   0.946770
   26  H  6  S    0.665202   0.674800   0.628246  -0.133691
   27  H  7  S   -0.378236  -0.456770   1.027917  -0.021022
   28  H  8  S   -0.267765   0.354790  -0.127760  -0.181762
   29  H  9  S    0.429316  -0.402661  -0.136098  -0.069890

 THE NUCLEAR REPULSION AT THE IRC POINT IS      151.1409142162

 * * * IRC RESTART INFORMATION * * *
 COORDINATES FOR $DATA AND ENTIRE $IRC GROUP FOLLOW

 COORDINATES OF SYMMETRY UNIQUE ATOMS (ANGS)
   ATOM   CHARGE       X              Y              Z
 ------------------------------------------------------------
 C           6.0   1.1657197130  -0.0199745692  -0.0934074314
 C           6.0   2.6911343301  -0.4012490326  -0.3519920794
 N           7.0   3.2081233896  -0.7133272943   1.0690828088
 CL         17.0   3.5435569699   1.3396506731  -0.6366658452
 H           1.0   0.8207457420  -0.3249224967   0.8935161460
 H           1.0   0.5241647720  -0.5267335647  -0.8159989403
 H           1.0   0.9529383919   1.0410824751  -0.1838067312
 H           1.0   2.7424762595  -1.6185086515   1.2917065796
 H           1.0   4.1908388508  -1.0244447512   0.9284589312
 $IRC   PACE=GS2        STRIDE= 0.10000   NPOINT=??
        STOTAL=  0.099791   NEXTPT=   2
        NPRT= 0   NPUN= 0   SADDLE=.FALSE.
        GA(   1)=-1.958393690E-06,-9.911487966E-06, 6.955316024E-06
        GA(   4)= 1.380510314E-06, 2.105466857E-05,-3.303693256E-05
        GA(   7)= 2.161340199E-05,-6.863881649E-05,-9.120712501E-05
        GA(  10)= 5.782396742E-06, 8.661932033E-05, 1.346285322E-04
        GA(  13)= 3.054340424E-05, 1.363594272E-04, 4.088032040E-05
        GA(  16)=-5.158598887E-06,-1.061679634E-04, 9.114028919E-05
        GA(  19)=-1.909594040E-05,-2.688082855E-05,-1.430523949E-04
        GA(  22)=-3.047614352E-05, 6.829089469E-06, 6.860134079E-06
        GA(  25)=-2.630957608E-06,-3.926331524E-05,-1.316810758E-05
 $END   
 A GS2 RESTART ALSO REQUIRES THE UPDATED $HESS GROUP FROM THE PUNCH FILE

 *********************************************
 ***** STARTING CONSTRAINED OPTIMIZATION *****
 *** TO FIND THE NEXT REACTION PATH POINT ****
 *********************************************
 CONSTRAINED OPTIMIZATION POINT   1 FOR PATH POINT   2
 COORDINATES OF SYMMETRY UNIQUE ATOMS (ANGS)
   ATOM   CHARGE       X              Y              Z
 ------------------------------------------------------------
 C           6.0   1.1657526407  -0.0198041208  -0.0935264213
 C           6.0   2.6911100584  -0.4016096266  -0.3514271736
 N           7.0   3.2078051037  -0.7123223612   1.0704211613
 CL         17.0   3.5435233422   1.3391420630  -0.6374564382
 H           1.0   0.8145259492  -0.3526959618   0.8851880478
 H           1.0   0.5252125432  -0.5051052600  -0.8345619061
 H           1.0   0.9568284067   1.0465578191  -0.1546682778
 H           1.0   2.7487049791  -1.6199111355   1.2902972079
 H           1.0   4.1913783054  -1.0164239099   0.9311474054
 ...... END OF ONE-ELECTRON INTEGRALS ......
 STEP CPU TIME =     0.01 TOTAL CPU TIME =          0.4 (      0.0 MIN)
 TOTAL WALL CLOCK TIME=          0.5 SECONDS, CPU UTILIZATION IS    89.13%
 TOTAL NUMBER OF NONZERO TWO-ELECTRON INTEGRALS =               85952
          6 INTEGRAL RECORDS WERE STORED ON DISK FILE  8.
  ...... END OF TWO-ELECTRON INTEGRALS .....
 STEP CPU TIME =     0.03 TOTAL CPU TIME =          0.4 (      0.0 MIN)
 TOTAL WALL CLOCK TIME=          0.5 SECONDS, CPU UTILIZATION IS    89.80%

          --------------------------
                 RHF SCF CALCULATION
          --------------------------
     DENSITY MATRIX CONV=  1.00E-05

 ITER EX DEM     TOTAL ENERGY        E CHANGE  DENSITY CHANGE     ORB. GRAD
          ---------------START SECOND ORDER SCF---------------
   1  0  0     -585.8275388268  -585.8275388268   0.011277512   0.003554496
   2  1  0     -585.8277204149    -0.0001815882   0.005527712   0.001181743
   3  2  0     -585.8277428593    -0.0000224444   0.000159191   0.000057857
   4  3  0     -585.8277429332    -0.0000000739   0.000126479   0.000033611
   5  4  0     -585.8277429517    -0.0000000185   0.000042061   0.000010507
   6  5  0     -585.8277429530    -0.0000000013   0.000017384   0.000003439
   7  6  0     -585.8277429532    -0.0000000002   0.000005775   0.000001050
   8  7  0     -585.8277429532    -0.0000000000   0.000001065   0.000000226

          -----------------
          DENSITY CONVERGED
          -----------------
     TIME TO FORM FOCK OPERATORS=       0.0 SECONDS (       0.0 SEC/ITER)
     TIME TO SOLVE SCF EQUATIONS=       0.0 SECONDS (       0.0 SEC/ITER)

 FINAL RHF ENERGY IS     -585.8277429532 AFTER   8 ITERATIONS
 ...... END OF RHF CALCULATION ......
 STEP CPU TIME =     0.04 TOTAL CPU TIME =          0.5 (      0.0 MIN)
 TOTAL WALL CLOCK TIME=          0.5 SECONDS, CPU UTILIZATION IS    88.89%
 ..... END OF 1-ELECTRON GRADIENT ......
 STEP CPU TIME =     0.02 TOTAL CPU TIME =          0.5 (      0.0 MIN)
 TOTAL WALL CLOCK TIME=          0.6 SECONDS, CPU UTILIZATION IS    90.91%
 ...... END OF 2-ELECTRON GRADIENT ......
 STEP CPU TIME =     0.04 TOTAL CPU TIME =          0.5 (      0.0 MIN)
 TOTAL WALL CLOCK TIME=          0.6 SECONDS, CPU UTILIZATION IS    93.10%

 UNITS ARE HARTREE/BOHR    E'X               E'Y               E'Z 
    1 C                0.001714896      -0.000321612      -0.000844481
    2 C               -0.000056491       0.000015312      -0.000179807
    3 N                0.000693305      -0.001652308       0.000075395
    4 CL               0.000054405       0.000251528       0.000227694
    5 H               -0.000570195      -0.000559236       0.002301441
    6 H               -0.000949121      -0.001082120      -0.001038438
    7 H               -0.000220013       0.001967324      -0.000438681
    8 H                0.000709632       0.001134842      -0.000322030
    9 H               -0.001376419       0.000246271       0.000218908

 CURRENT OPTIMIZATION POINT :
 ENERGY                                 =  -585.8277430 HARTREE
 MASS WEIGHTED TANGENT GRADIENT NORM    =     0.0041835 HARTREE/BOHR-SQRT(AMU)
 NEXT GEOMETRY STEP HAS PREDICTED ANGLE =        10.621 DEGREES
 AND CARTESIAN RMS DISPLACEMENT         =     0.0088508 BOHR

 CONSTRAINED OPTIMIZATION POINT   2 FOR PATH POINT   2
 COORDINATES OF SYMMETRY UNIQUE ATOMS (ANGS)
   ATOM   CHARGE       X              Y              Z
[...]
 NEXT GEOMETRY STEP HAS PREDICTED ANGLE =         0.231 DEGREES
 AND CARTESIAN RMS DISPLACEMENT         =     0.0001757 BOHR

 *******************************************
 ***** END OF CONSTRAINED OPTIMIZATION *****
 *******************************************

 ANGLE BETWEEN GRADIENTS AT CURRENT AND PREVIOUS IRC POINT =   5.106
 ENERGY WAS LOWERED BY      0.0000017782 HARTREE DURING OPTIMIZATION

 ***** NEXT POINT ON IRC FOUND *****
 STEP DISTANCE IS   0.09990 SQRT(AMU)-BOHR)

1         POINT  32 ON THE REACTION PATH
          ******************************
          AT PATH DISTANCE STOTAL =   3.19718     SQRT(AMU)-BOHR
          TOTAL ENERGY            =  -585.8340892 HARTREE
            3 CONSTRAINED OPTIMIZATION STEPS WERE PERFORMED
  
 COORDINATES OF ALL ATOMS ARE (ANGS)
   ATOM   CHARGE       X              Y              Z
 ------------------------------------------------------------
 C           6.0   1.1967537031  -0.0103151227  -0.0915363419
 C           6.0   2.7018500177  -0.4129827343  -0.3300221443
 N           7.0   3.2039180017  -0.6814491530   1.1052613855
 CL         17.0   3.5281605211   1.3254415127  -0.6620409848
 H           1.0   0.6427999014  -0.8900088038   0.2377664811
 H           1.0   0.7365055251   0.3203698443  -1.0201960457
 H           1.0   1.0244209132   0.7677381811   0.6527606660
 H           1.0   2.7355098066  -1.5789568304   1.3520797167
 H           1.0   4.1874688987  -0.9978773259   0.9853663536
  

          INTERNUCLEAR DISTANCES (ANGS.)
          ------------------------------

                1 C          2 C          3 N          4 CL         5 H     

   1 C       0.0000000    1.5761763 *  2.4313482 *  2.7468489 *  1.0904889 *
   2 C       1.5761763 *  0.0000000    1.5440807 *  1.9532395 *  2.1885212 *
   3 N       2.4313482 *  1.5440807 *  0.0000000    2.6937151 *  2.7120786 *
   4 CL      2.7468489 *  1.9532395 *  2.6937151 *  0.0000000    3.7474230  
   5 H       1.0904889 *  2.1885212 *  2.7120786 *  3.7474230    0.0000000  
   6 H       1.0879291 *  2.2083308 *  3.4072474    2.9886087 *  1.7482182 *
   7 H       1.0904327 *  2.2745840 *  2.6561454 *  2.8824379 *  1.7509940 *
   8 H       2.6291509 *  2.0469722 *  1.0420391 *  3.6222241    2.4689630 *
   9 H       3.3285696    2.0686740 *  1.0401317 *  2.9234310 *  3.6242543  

                6 H          7 H          8 H          9 H     

   1 C       1.0879291 *  1.0904327 *  2.6291509 *  3.3285696  
   2 C       2.2083308 *  2.2745840 *  2.0469722 *  2.0686740 *
   3 N       3.4072474    2.6561454 *  1.0420391 *  1.0401317 *
   4 CL      2.9886087 *  2.8824379 *  3.6222241    2.9234310 *
   5 H       1.7482182 *  1.7509940 *  2.4689630 *  3.6242543  
   6 H       0.0000000    1.7555107 *  3.6374651    4.2034753  
   7 H       1.7555107 *  0.0000000    2.9872813 *  3.6377049  
   8 H       3.6374651    2.9872813 *  0.0000000    1.6063366 *
   9 H       4.2034753    3.6377049    1.6063366 *  0.0000000  

  * ... LESS THAN  3.000


          CURRENT CARTESIAN GRADIENT
          ATOM               DE/DX          DE/DY          DE/DZ
          -----------------------------------------------------------
          C               -0.0002143851  -0.0000333395  -0.0000124951
          C               -0.0001739924   0.0000798999  -0.0001815582
          N               -0.0000886166  -0.0000689128  -0.0002258058
          CL               0.0003837416  -0.0000101075   0.0004807155
          H                0.0000795465   0.0000836281   0.0003618765
          H               -0.0001326855  -0.0003640675  -0.0000648588
          H               -0.0000010169   0.0002588197  -0.0002490080
          H                0.0001146297  -0.0000815954  -0.0000860642
          H                0.0000327785   0.0001356747  -0.0000228019

 THE NUCLEAR REPULSION AT THE IRC POINT IS      151.8032704454

 * * * IRC RESTART INFORMATION * * *
 COORDINATES FOR $DATA AND ENTIRE $IRC GROUP FOLLOW

 COORDINATES OF SYMMETRY UNIQUE ATOMS (ANGS)
   ATOM   CHARGE       X              Y              Z
 ------------------------------------------------------------
 C           6.0   1.1967537031  -0.0103151227  -0.0915363419
 C           6.0   2.7018500177  -0.4129827343  -0.3300221443
 N           7.0   3.2039180017  -0.6814491530   1.1052613855
 CL         17.0   3.5281605211   1.3254415127  -0.6620409848
 H           1.0   0.6427999014  -0.8900088038   0.2377664811
 H           1.0   0.7365055251   0.3203698443  -1.0201960457
 H           1.0   1.0244209132   0.7677381811   0.6527606660
 H           1.0   2.7355098066  -1.5789568304   1.3520797167
 H           1.0   4.1874688987  -0.9978773259   0.9853663536
 $IRC   PACE=GS2        STRIDE= 0.10000   NPOINT=??
        STOTAL=  3.197179   NEXTPT=  33
        NPRT= 0   NPUN= 0   SADDLE=.FALSE.
        GA(   1)=-2.143851366E-04,-3.333949927E-05,-1.249511508E-05
        GA(   4)=-1.739924291E-04, 7.989987724E-05,-1.815581681E-04
        GA(   7)=-8.861655290E-05,-6.891278234E-05,-2.258057698E-04
        GA(  10)= 3.837416043E-04,-1.010749789E-05, 4.807155057E-04
        GA(  13)= 7.954647230E-05, 8.362807763E-05, 3.618765406E-04
        GA(  16)=-1.326855178E-04,-3.640674638E-04,-6.485881006E-05
        GA(  19)=-1.016944549E-06, 2.588197449E-04,-2.490079698E-04
        GA(  22)= 1.146297250E-04,-8.159540661E-05,-8.606417098E-05
        GA(  25)= 3.277848890E-05, 1.356747259E-04,-2.280192792E-05
 $END   
 A GS2 RESTART ALSO REQUIRES THE UPDATED $HESS GROUP FROM THE PUNCH FILE

 *********************************************
 ***** STARTING CONSTRAINED OPTIMIZATION *****
 *** TO FIND THE NEXT REACTION PATH POINT ****
 *********************************************
 CONSTRAINED OPTIMIZATION POINT   1 FOR PATH POINT  33
 COORDINATES OF SYMMETRY UNIQUE ATOMS (ANGS)
   ATOM   CHARGE       X              Y              Z
 ------------------------------------------------------------
 C           6.0   1.1980965826  -0.0101060833  -0.0914586182
 C           6.0   2.7029404662  -0.4134835113  -0.3288839689
 N           7.0   3.2043953284  -0.6810813548   1.1064732083
 CL         17.0   3.5273349927   1.3254639764  -0.6630739305
 H           1.0   0.6368664711  -0.8962342505   0.2107939514
 H           1.0   0.7464006980   0.3475031227  -1.0153682822
 H           1.0   1.0244977823   0.7484577728   0.6713120850
 H           1.0   2.7269538434  -1.5728699238   1.3585009888
 H           1.0   4.1850245515  -1.0080077168   0.9870639013
 ...... END OF ONE-ELECTRON INTEGRALS ......
 STEP CPU TIME =     0.01 TOTAL CPU TIME =          8.9 (      0.1 MIN)
 TOTAL WALL CLOCK TIME=          9.9 SECONDS, CPU UTILIZATION IS    89.87%
 TOTAL NUMBER OF NONZERO TWO-ELECTRON INTEGRALS =               85998
          6 INTEGRAL RECORDS WERE STORED ON DISK FILE  8.
  ...... END OF TWO-ELECTRON INTEGRALS .....
 STEP CPU TIME =     0.02 TOTAL CPU TIME =          8.9 (      0.1 MIN)
 TOTAL WALL CLOCK TIME=          9.9 SECONDS, CPU UTILIZATION IS    89.89%

          --------------------------
                 RHF SCF CALCULATION
          --------------------------
     DENSITY MATRIX CONV=  1.00E-05

 ITER EX DEM     TOTAL ENERGY        E CHANGE  DENSITY CHANGE     ORB. GRAD
          ---------------START SECOND ORDER SCF---------------
   1  0  0     -585.8339476824  -585.8339476824   0.010313575   0.003309010
   2  1  0     -585.8341226886    -0.0001750062   0.005040107   0.001038112
   3  2  0     -585.8341447515    -0.0000220629   0.000217828   0.000070287
   4  3  0     -585.8341448343    -0.0000000827   0.000164308   0.000031841
   5  4  0     -585.8341448524    -0.0000000181   0.000006633   0.000001939
   6  5  0     -585.8341448525    -0.0000000001   0.000003134   0.000000925
   7  6  0     -585.8341448525    -0.0000000000   0.000001654   0.000000415

          -----------------
          DENSITY CONVERGED
          -----------------
     TIME TO FORM FOCK OPERATORS=       0.0 SECONDS (       0.0 SEC/ITER)
     TIME TO SOLVE SCF EQUATIONS=       0.0 SECONDS (       0.0 SEC/ITER)

 FINAL RHF ENERGY IS     -585.8341448525 AFTER   7 ITERATIONS
 ...... END OF RHF CALCULATION ......
 STEP CPU TIME =     0.03 TOTAL CPU TIME =          8.9 (      0.1 MIN)
 TOTAL WALL CLOCK TIME=          9.9 SECONDS, CPU UTILIZATION IS    89.83%
 ..... END OF 1-ELECTRON GRADIENT ......
 STEP CPU TIME =     0.01 TOTAL CPU TIME =          8.9 (      0.1 MIN)
 TOTAL WALL CLOCK TIME=          9.9 SECONDS, CPU UTILIZATION IS    89.93%
 ...... END OF 2-ELECTRON GRADIENT ......
 STEP CPU TIME =     0.03 TOTAL CPU TIME =          9.0 (      0.1 MIN)
 TOTAL WALL CLOCK TIME=         10.0 SECONDS, CPU UTILIZATION IS    89.87%

 UNITS ARE HARTREE/BOHR    E'X               E'Y               E'Z 
    1 C                0.000459116       0.000919304       0.000948166
    2 C               -0.000125611       0.000110288      -0.000015036
    3 N               -0.000243667       0.000443755      -0.000284052
    4 CL               0.000237444      -0.000096666       0.000324983
    5 H               -0.000356917      -0.000681779       0.000500752
    6 H               -0.000440663       0.000100337      -0.000822362
    7 H                0.000172461      -0.000354122      -0.000663217
    8 H               -0.000128399      -0.000469084       0.000065516
    9 H                0.000426235       0.000027967      -0.000054748

 CURRENT OPTIMIZATION POINT :
 ENERGY                                 =  -585.8341449 HARTREE
 MASS WEIGHTED TANGENT GRADIENT NORM    =     0.0016608 HARTREE/BOHR-SQRT(AMU)
 NEXT GEOMETRY STEP HAS PREDICTED ANGLE =         8.407 DEGREES
 AND CARTESIAN RMS DISPLACEMENT         =     0.0069520 BOHR

 CONSTRAINED OPTIMIZATION POINT   2 FOR PATH POINT  33
 COORDINATES OF SYMMETRY UNIQUE ATOMS (ANGS)
   ATOM   CHARGE       X              Y              Z
 ------------------------------------------------------------
 C           6.0   1.1980884100  -0.0103024868  -0.0914143873
 C           6.0   2.7030013379  -0.4134326550  -0.3288992351
 N           7.0   3.2043974255  -0.6812065711   1.1064541484
 CL         17.0   3.5273832763   1.3255870275  -0.6631242543
 H           1.0   0.6375329755  -0.8955259895   0.2109835432
 H           1.0   0.7465087329   0.3459328870  -1.0146624446
 H           1.0   1.0237572512   0.7490874632   0.6715654836
 H           1.0   2.7255504502  -1.5715556049   1.3590735003
 H           1.0   4.1840620058  -1.0098864935   0.9870086117
 ...... END OF ONE-ELECTRON INTEGRALS ......
 STEP CPU TIME =     0.02 TOTAL CPU TIME =          9.0 (      0.1 MIN)
 TOTAL WALL CLOCK TIME=         10.0 SECONDS, CPU UTILIZATION IS    89.98%
 TOTAL NUMBER OF NONZERO TWO-ELECTRON INTEGRALS =               85996
          6 INTEGRAL RECORDS WERE STORED ON DISK FILE  8.
  ...... END OF TWO-ELECTRON INTEGRALS .....
 STEP CPU TIME =     0.01 TOTAL CPU TIME =          9.0 (      0.1 MIN)
 TOTAL WALL CLOCK TIME=         10.0 SECONDS, CPU UTILIZATION IS    89.90%

          --------------------------
                 RHF SCF CALCULATION
          --------------------------
     DENSITY MATRIX CONV=  1.00E-05

 ITER EX DEM     TOTAL ENERGY        E CHANGE  DENSITY CHANGE     ORB. GRAD
          ---------------START SECOND ORDER SCF---------------
   1  0  0     -585.8341464812  -585.8341464812   0.000810867   0.000267072
   2  1  0     -585.8341474985    -0.0000010173   0.000503584   0.000101538
   3  2  0     -585.8341476653    -0.0000001667   0.000034008   0.000011219
   4  3  0     -585.8341476676    -0.0000000023   0.000015623   0.000004036
   5  4  0     -585.8341476679    -0.0000000004   0.000002574   0.000000874
   6  5  0     -585.8341476679    -0.0000000000   0.000001486   0.000000392

          -----------------
          DENSITY CONVERGED
          -----------------
     TIME TO FORM FOCK OPERATORS=       0.0 SECONDS (       0.0 SEC/ITER)
     TIME TO SOLVE SCF EQUATIONS=       0.0 SECONDS (       0.0 SEC/ITER)

 FINAL RHF ENERGY IS     -585.8341476679 AFTER   6 ITERATIONS
 ...... END OF RHF CALCULATION ......
 STEP CPU TIME =     0.03 TOTAL CPU TIME =          9.0 (      0.2 MIN)
 TOTAL WALL CLOCK TIME=         10.0 SECONDS, CPU UTILIZATION IS    89.93%
 ..... END OF 1-ELECTRON GRADIENT ......
 STEP CPU TIME =     0.01 TOTAL CPU TIME =          9.0 (      0.2 MIN)
 TOTAL WALL CLOCK TIME=         10.0 SECONDS, CPU UTILIZATION IS    90.03%
 ...... END OF 2-ELECTRON GRADIENT ......
 STEP CPU TIME =     0.04 TOTAL CPU TIME =          9.1 (      0.2 MIN)
 TOTAL WALL CLOCK TIME=         10.1 SECONDS, CPU UTILIZATION IS    90.07%

 UNITS ARE HARTREE/BOHR    E'X               E'Y               E'Z 
    1 C               -0.000136932       0.000072945      -0.000027100
    2 C               -0.000109111       0.000079319      -0.000120396
    3 N               -0.000122045       0.000015034      -0.000154864
    4 CL               0.000253327      -0.000074382       0.000323331
    5 H                0.000048129       0.000085063       0.000209400
    6 H               -0.000092759      -0.000301003      -0.000035912
    7 H               -0.000001892       0.000133431      -0.000122482
    8 H                0.000073708      -0.000119708      -0.000047025
    9 H                0.000087574       0.000109301      -0.000024952

 STOPPING BECAUSE GRADIENT IS BELOW -OPTTOL-
 YOUR RUN IS PROBABLY VERY NEAR A PES MINIMUM.
 MAX GRADIENT= 0.000323 RMS GRADIENT= 0.000136


 *******************************************
 ***** END OF CONSTRAINED OPTIMIZATION *****
 *******************************************

 ANGLE BETWEEN GRADIENTS AT CURRENT AND PREVIOUS IRC POINT =   8.407
 ENERGY WAS LOWERED BY      0.0000028154 HARTREE DURING OPTIMIZATION

 ***** NEXT POINT ON IRC FOUND *****
 STEP DISTANCE IS   0.09973 SQRT(AMU)-BOHR)

1         POINT  33 ON THE REACTION PATH
          ******************************
          AT PATH DISTANCE STOTAL =   3.29691     SQRT(AMU)-BOHR
          TOTAL ENERGY            =  -585.8341477 HARTREE
            2 CONSTRAINED OPTIMIZATION STEPS WERE PERFORMED
  
 COORDINATES OF ALL ATOMS ARE (ANGS)
   ATOM   CHARGE       X              Y              Z
 ------------------------------------------------------------
 C           6.0   1.1980884100  -0.0103024868  -0.0914143873
 C           6.0   2.7030013379  -0.4134326550  -0.3288992351
 N           7.0   3.2043974255  -0.6812065711   1.1064541484
 CL         17.0   3.5273832763   1.3255870275  -0.6631242543
 H           1.0   0.6375329755  -0.8955259895   0.2109835432
 H           1.0   0.7465087329   0.3459328870  -1.0146624446
 H           1.0   1.0237572512   0.7490874632   0.6715654836
 H           1.0   2.7255504502  -1.5715556049   1.3590735003
 H           1.0   4.1840620058  -1.0098864935   0.9870086117
  

          INTERNUCLEAR DISTANCES (ANGS.)
          ------------------------------

                1 C          2 C          3 N          4 CL         5 H     

   1 C       0.0000000    1.5759682 *  2.4311062 *  2.7453720 *  1.0905446 *
   2 C       1.5759682 *  0.0000000    1.5438071 *  1.9533308 *  2.1886176 *
   3 N       2.4311062 *  1.5438071 *  0.0000000    2.6949857 *  2.7270118 *
   4 CL      2.7453720 *  1.9533308 *  2.6949857 *  0.0000000    3.7481518  
   5 H       1.0905446 *  2.1886176 *  2.7270118 *  3.7481518    0.0000000  
   6 H       1.0877568 *  2.2078882 *  3.4051972    2.9692700 *  1.7479428 *
   7 H       1.0905057 *  2.2742567 *  2.6438723 *  2.8951497 *  1.7510164 *
   8 H       2.6219395 *  2.0471954 *  1.0420328 *  3.6229346    2.4768818 *
   9 H       3.3283934    2.0690363 *  1.0402117 *  2.9340419 *  3.6322392  

                6 H          7 H          8 H          9 H     

   1 C       1.0877568 *  1.0905057 *  2.6219395 *  3.3283934  
   2 C       2.2078882 *  2.2742567 *  2.0471954 *  2.0690363 *
   3 N       3.4051972    2.6438723 *  1.0420328 *  1.0402117 *
   4 CL      2.9692700 *  2.8951497 *  3.6229346    2.9340419 *
   5 H       1.7479428 *  1.7510164 *  2.4768818 *  3.6322392  
   6 H       0.0000000    1.7557804 *  3.6370305    4.2025832  
   7 H       1.7557804 *  0.0000000    2.9587416 *  3.6305674  
   8 H       3.6370305    2.9587416 *  0.0000000    1.6065990 *
   9 H       4.2025832    3.6305674    1.6065990 *  0.0000000  

  * ... LESS THAN  3.000


          CURRENT CARTESIAN GRADIENT
          ATOM               DE/DX          DE/DY          DE/DZ
          -----------------------------------------------------------
          C               -0.0001369316   0.0000729454  -0.0000270999
          C               -0.0001091109   0.0000793189  -0.0001203962
          N               -0.0001220451   0.0000150336  -0.0001548644
          CL               0.0002533273  -0.0000743821   0.0003233311
          H                0.0000481289   0.0000850628   0.0002093997
          H               -0.0000927593  -0.0003010026  -0.0000359116
          H               -0.0000018917   0.0001334311  -0.0001224821
          H                0.0000737079  -0.0001197082  -0.0000470247
          H                0.0000875739   0.0001093010  -0.0000249519

 THE NUCLEAR REPULSION AT THE IRC POINT IS      151.8042537789

 * * * IRC RESTART INFORMATION * * *
 COORDINATES FOR $DATA AND ENTIRE $IRC GROUP FOLLOW

 COORDINATES OF SYMMETRY UNIQUE ATOMS (ANGS)
   ATOM   CHARGE       X              Y              Z
 ------------------------------------------------------------
 C           6.0   1.1980884100  -0.0103024868  -0.0914143873
 C           6.0   2.7030013379  -0.4134326550  -0.3288992351
 N           7.0   3.2043974255  -0.6812065711   1.1064541484
 CL         17.0   3.5273832763   1.3255870275  -0.6631242543
 H           1.0   0.6375329755  -0.8955259895   0.2109835432
 H           1.0   0.7465087329   0.3459328870  -1.0146624446
 H           1.0   1.0237572512   0.7490874632   0.6715654836
 H           1.0   2.7255504502  -1.5715556049   1.3590735003
 H           1.0   4.1840620058  -1.0098864935   0.9870086117
 $IRC   PACE=GS2        STRIDE= 0.10000   NPOINT=??
        STOTAL=  3.296910   NEXTPT=  34
        NPRT= 0   NPUN= 0   SADDLE=.FALSE.
        GA(   1)=-1.369315699E-04, 7.294539038E-05,-2.709994759E-05
        GA(   4)=-1.091109033E-04, 7.931887428E-05,-1.203962356E-04
        GA(   7)=-1.220451478E-04, 1.503355712E-05,-1.548643680E-04
        GA(  10)= 2.533273080E-04,-7.438206101E-05, 3.233311217E-04
        GA(  13)= 4.812891713E-05, 8.506277215E-05, 2.093997379E-04
        GA(  16)=-9.275927894E-05,-3.010025513E-04,-3.591157431E-05
        GA(  19)=-1.891657283E-06, 1.334311447E-04,-1.224820583E-04
        GA(  22)= 7.370793890E-05,-1.197081832E-04,-4.702469257E-05
        GA(  25)= 8.757393621E-05, 1.093010258E-04,-2.495190764E-05
 $END   
 A GS2 RESTART ALSO REQUIRES THE UPDATED $HESS GROUP FROM THE PUNCH FILE
 ......DONE WITH THIS PORTION OF THE IRC......
 STEP CPU TIME =     0.00 TOTAL CPU TIME =          9.1 (      0.2 MIN)
 TOTAL WALL CLOCK TIME=         10.1 SECONDS, CPU UTILIZATION IS    89.98%
               580000  WORDS OF DYNAMIC MEMORY USED
 EXECUTION OF GAMESS TERMINATED NORMALLY Wed Dec 22 15:05:03 2021
 DDI: 263640 bytes (0.3 MB / 0 MWords) used by master data server.

 ----------------------------------------
 CPU timing information for all processes
 ========================================
 0: 6.946 + 2.136 = 9.83
 ----------------------------------------
 ddikick.x: exited gracefully.
----- accounting info -----
Files used on the master node chemcompute-node-0.novalocal were:
-rw-r--r--. 1 chemcomp chemcomp    12945 Dec 22 15:04 /scratch/331195/369184.F05
-rw-rw-r--. 1 chemcomp chemcomp  1080096 Dec 22 15:05 /scratch/331195/369184.F08
-rw-rw-r--. 1 chemcomp chemcomp 52428800 Dec 22 15:05 /scratch/331195/369184.F10
Wed Dec 22 15:05:06 UTC 2021
0.118u 0.080s 0:13.75 1.3%	0+0k 32+240io 0pf+0w
Finishing Up...
Looking for IR data...
Looking for Raman data...
vibramans not found
Looking for thermodynamics data...
Looking for UV-Vis data...
331195
