----- GAMESS execution script 'rungms' -----
This job is running on host chemcompute-node-5.novalocal
under operating system Linux at Wed Dec 22 14:39:51 UTC 2021
SLURM has assigned the following compute nodes to this run:
chemcompute-node-5
Available scratch disk space (Kbyte units) at beginning of the job is
Filesystem     1K-blocks    Used Available Use% Mounted on
/dev/sda1      125817836 9404484 116413352   8% /
GAMESS temporary binary files will be written to /scratch/331174
GAMESS supplementary output files will be written to /data/slurm/369163
Copying input file 369163.inp to your run's scratch directory...
The generated host list is
chemcompute-node-5.novalocal

 Distributed Data Interface kickoff program.
 Initiating 1 compute processes on 1 nodes to run the following command:
 /data/gamess-2019R1-ddi/gamess.00.x 369163 

          ******************************************************
          *         GAMESS VERSION = 30 JUN 2019 (R1)          *
          *             FROM IOWA STATE UNIVERSITY             *
          * M.W.SCHMIDT, K.K.BALDRIDGE, J.A.BOATZ, S.T.ELBERT, *
          *   M.S.GORDON, J.H.JENSEN, S.KOSEKI, N.MATSUNAGA,   *
          *          K.A.NGUYEN, S.J.SU, T.L.WINDUS,           *
          *       TOGETHER WITH M.DUPUIS, J.A.MONTGOMERY       *
          *         J.COMPUT.CHEM.  14, 1347-1363(1993)        *
          **************** 64 BIT LINUX VERSION ****************

  SINCE 1993, STUDENTS AND POSTDOCS WORKING AT IOWA STATE UNIVERSITY
  AND ALSO IN THEIR VARIOUS JOBS AFTER LEAVING ISU HAVE MADE IMPORTANT
  CONTRIBUTIONS TO THE CODE:
     IVANA ADAMOVIC, CHRISTINE AIKENS, YURI ALEXEEV, POOJA ARORA,
     ANDREY ASADCHEV, ROB BELL, PRADIPTA BANDYOPADHYAY, JONATHAN BENTZ,
     COLLEEN BERTONI, BRETT BODE, KURT BRORSEN, CALEB CARLIN, GALINA CHABAN,
     WEI CHEN, CHEOL HO CHOI, PAUL DAY, ALBERT DEFUSCO, NUWAN DESILVA,
     TIM DUDLEY, DMITRI FEDOROV, ALEX FINDLATER, GRAHAM FLETCHER, 
     MARK FREITAG, KURT GLAESEMANN, ANASTASIA GUNINA,
     DAN KEMP, GRANT MERRILL, NORIYUKI MINEZAWA, JONATHAN MULLIN,
     TAKESHI NAGATA, SEAN NEDD, HEATHER NETZLOFF, BOSILJKA NJEGIC, RYAN OLSON,
     MIKE PAK, BUU PHAM,
     SPENCER PRUITT, LUKE ROSKOP, JIM SHOEMAKER, LYUDMILA SLIPCHENKO,
     TONY SMITH, SAROM SOK LEANG, JIE SONG, TETSUYA TAKETSUGU, SIMON WEBB,
     PENG XU, SOOHAENG YOO, FEDERICO ZAHARIEV

  ADDITIONAL CODE HAS BEEN PROVIDED BY COLLABORATORS IN OTHER GROUPS:
     IOWA STATE UNIVERSITY:
          JOE IVANIC, AARON WEST, LAIMUTIS BYTAUTAS, KLAUS RUEDENBERG
     UNIVERSITY OF TOKYO: KIMIHIKO HIRAO, TAKAHITO NAKAJIMA,
          TAKAO TSUNEDA, MUNEAKI KAMIYA, SUSUMU YANAGISAWA,
          KIYOSHI YAGI, MAHITO CHIBA, SEIKEN TOKURA, NAOAKI KAWAKAMI
     UNIVERSITY OF AARHUS: FRANK JENSEN
     UNIVERSITY OF IOWA: VISVALDAS KAIRYS, HUI LI
     NATIONAL INST. OF STANDARDS AND TECHNOLOGY: WALT STEVENS, DAVID GARMER
     UNIVERSITY OF PISA: BENEDETTA MENNUCCI, JACOPO TOMASI
     UNIVERSITY OF MEMPHIS: HENRY KURTZ, PRAKASHAN KORAMBATH
     UNIVERSITY OF ALBERTA: TOBY ZENG, MARIUSZ KLOBUKOWSKI
     UNIVERSITY OF NEW ENGLAND: MARK SPACKMAN
     MIE UNIVERSITY: HIROAKI UMEDA
     NAT. INST. OF ADVANCED INDUSTRIAL SCIENCE AND TECHNOLOGY: KAZUO KITAURA
     MICHIGAN STATE UNIVERSITY:
          KAROL KOWALSKI, MARTA WLOCH, JEFFREY GOUR, JESSE LUTZ,
          WEI LI, JUN SHEN, J. EMILIANO DEUSTUA, PIOTR PIECUCH
     UNIVERSITY OF MINNESOTA:
          YINAN SHU
     UNIVERSITY OF SILESIA: MONIKA MUSIAL, STANISLAW KUCHARSKI
     FACULTES UNIVERSITAIRES NOTRE-DAME DE LA PAIX:
          OLIVIER QUINET, BENOIT CHAMPAGNE
     UNIVERSITY OF CALIFORNIA - SANTA BARBARA: BERNARD KIRTMAN
     INSTITUTE FOR MOLECULAR SCIENCE:
          KAZUYA ISHIMURA, MICHIO KATOUDA, AND SHIGERU NAGASE
     UNIVERSITY OF NOTRE DAME: ANNA POMOGAEVA, DAN CHIPMAN
     KYUSHU UNIVERSITY:
          HARUYUKI NAKANO,
          FENG LONG GU, JACEK KORCHOWIEC, MARCIN MAKOWSKI, AND YURIKO AOKI,
          HIROTOSHI MORI AND EISAKU MIYOSHI
     PENNSYLVANIA STATE UNIVERSITY:
          TZVETELIN IORDANOV, CHET SWALINA, JONATHAN SKONE,
          SHARON HAMMES-SCHIFFER
     WASEDA UNIVERSITY:
          MASATO KOBAYASHI, TOMOKO AKAMA, TSUGUKI TOUMA,
          TAKESHI YOSHIKAWA, YASUHIRO IKABATA, JUNJI SEINO,
          YUYA NAKAJIMA, HIROMI NAKAI
     NANJING UNIVERSITY: SHUHUA LI
     UNIVERSITY OF NEBRASKA:
          PEIFENG SU, DEJUN SI, NANDUN THELLAMUREGE, YALI WANG, HUI LI
     UNIVERSITY OF ZURICH: ROBERTO PEVERATI, KIM BALDRIDGE
     N. COPERNICUS UNIVERSITY AND JACKSON STATE UNIVERSITY:
          MARIA BARYSZ
     UNIVERSITY OF COPENHAGEN: Jimmy Kromann, CASPER STEINMANN
     TOKYO INSTITUTE OF TECHNOLOGY: HIROYA NAKATA
     NAGOYA UNIVERSITY: YOSHIO NISHIMOTO, STEPHAN IRLE
     MOSCOW STATE UNIVERSITY: VLADIMIR MIRONOV
     A.N.NESMEYANOV INSTITUTE OF ORGANOELEMENT COMPOUNDS OF RUSSIAN ACADEMY OF SCIENCES:
          IGOR S. GERASIMOV

 EXECUTION OF GAMESS BEGUN Wed Dec 22 14:39:51 2021

            ECHO OF THE FIRST FEW INPUT CARDS -
 INPUT CARD>!File created by the GAMESS Input Deck Generator Plugin for Avogadro            
 INPUT CARD> $BASIS GBASIS=STO NGAUSS=3 $END                                                
 INPUT CARD> $CONTRL SCFTYP=RHF RUNTYP=SADPOINT ICHARG=-1 $END                              
 INPUT CARD> $STATPT  HESS=calc ihrep=5 $END                                                
 INPUT CARD> $FORCE NVIB=2 $END                                                             
 INPUT CARD> $STATPT OPTTOL=0.0005 NSTEP=50 hssend=.t. $END                                 
 INPUT CARD> $ZMAT DLC=.T. AUTO=.T. NONVDW(1)=1,2,3,9, $END                                 
 INPUT CARD>!$ZMAT IFZMAT(1)=1,2,3,1,3,9 fvalue(1)=2.00,2.00 $END                           
 INPUT CARD>                                                                                
 INPUT CARD>                                                                                
 INPUT CARD> $DATA                                                                          
 INPUT CARD>Title                                                                           
 INPUT CARD>C1                                                                              
 INPUT CARD>C     6.0     1.05632699     0.03187611    -0.03538517                          
 INPUT CARD>C     6.0     2.58195996    -0.07009807     0.04547698                          
 INPUT CARD>N     7.0     3.19353414    -0.87747049     0.85952365                          
 INPUT CARD>Cl    17.0     3.54233813     0.93700701    -0.99388993                         
 INPUT CARD>H     1.0     0.59189701    -0.64971799     0.67347401                          
 INPUT CARD>H     1.0     0.74763352    -0.21241535    -1.05278778                          
 INPUT CARD>H     1.0     0.76595366     1.06049740     0.18267374                          
 INPUT CARD>H     1.0     2.66605425    -1.50035000     1.50255263                          
 INPUT CARD>H     1.0     4.68949986    -0.97219127     0.91532600                          
 INPUT CARD> $END                                                                           
    1000000 WORDS OF MEMORY AVAILABLE

     BASIS OPTIONS
     -------------
     GBASIS=STO          IGAUSS=       3      POLAR=NONE    
     NDFUNC=       0     NFFUNC=       0     DIFFSP=       F
     NPFUNC=       0      DIFFS=       F     BASNAM=        


     RUN TITLE
     ---------
 Title                                                                           

 THE POINT GROUP OF THE MOLECULE IS C1      
 THE ORDER OF THE PRINCIPAL AXIS IS     0

 ATOM      ATOMIC                      COORDINATES (BOHR)
           CHARGE         X                   Y                   Z
 C           6.0     1.9961685645        0.0602371135       -0.0668682753
 C           6.0     4.8791968357       -0.1324661446        0.0859390309
 N           7.0     6.0349044570       -1.6581787884        1.6242641785
 CL         17.0     6.6940484216        1.7706864975       -1.8781796297
 H           1.0     1.1185231619       -1.2277889704        1.2726813388
 H           1.0     1.4128224920       -0.4014068071       -1.9894804274
 H           1.0     1.4474425367        2.0040494967        0.3452033138
 H           1.0     5.0381120009       -2.8352503857        2.8394127528
 H           1.0     8.8618697549       -1.8371751080        1.7297153294

          INTERNUCLEAR DISTANCES (ANGS.)
          ------------------------------

                1 C          2 C          3 N          4 CL         5 H     

   1 C       0.0000000    1.5311739 *  2.4890616 *  2.8139376 *  1.0875418 *
   2 C       1.5311739 *  0.0000000    1.2994403 *  1.7369141 *  2.1658001 *
   3 N       2.4890616 *  1.2994403 *  0.0000000    2.6170852 *  2.6182058 *
   4 CL      2.8139376 *  1.7369141 *  2.6170852 *  0.0000000    3.7420451  
   5 H       1.0875418 *  2.1658001 *  2.6182058 *  3.7420451    0.0000000  
   6 H       1.0909070 *  2.1427070 *  3.1751635    3.0224187    1.7875870 *
   7 H       1.0908383 *  2.1435830 *  3.1791496    3.0179236    1.7877408 *
   8 H       2.7026268 *  2.0434681 *  1.0390862 *  3.5973335    2.3902038 *
   9 H       3.8874089    2.4519653 *  1.4999998 *  2.9336195 *  4.1173815  

                6 H          7 H          8 H          9 H     

   1 C       1.0909070 *  1.0908383 *  2.7026268 *  3.8874089  
   2 C       2.1427070 *  2.1435830 *  2.0434681 *  2.4519653 *
   3 N       3.1751635    3.1791496    1.0390862 *  1.4999998 *
   4 CL      3.0224187    3.0179236    3.5973335    2.9336195 *
   5 H       1.7875870 *  1.7877408 *  2.3902038 *  4.1173815  
   6 H       0.0000000    1.7739807 *  3.4451239    4.4709106  
   7 H       1.7739807 *  0.0000000    3.4511450    4.4791536  
   8 H       3.4451239    3.4511450    0.0000000    2.1721231 *
   9 H       4.4709106    4.4791536    2.1721231 *  0.0000000  

  * ... LESS THAN  3.000


     ATOMIC BASIS SET
     ----------------
 THE CONTRACTED PRIMITIVE FUNCTIONS HAVE BEEN UNNORMALIZED
 THE CONTRACTED BASIS FUNCTIONS ARE NOW NORMALIZED TO UNITY

  SHELL TYPE  PRIMITIVE        EXPONENT          CONTRACTION COEFFICIENT(S)

 C         

      1   S       1            71.6168373    0.154328967295
      1   S       2            13.0450963    0.535328142282
      1   S       3             3.5305122    0.444634542185

      2   L       4             2.9412494   -0.099967229187    0.155916274999
      2   L       5             0.6834831    0.399512826089    0.607683718598
      2   L       6             0.2222899    0.700115468880    0.391957393099

 C         

      3   S       7            71.6168373    0.154328967295
      3   S       8            13.0450963    0.535328142282
      3   S       9             3.5305122    0.444634542185

      4   L      10             2.9412494   -0.099967229187    0.155916274999
      4   L      11             0.6834831    0.399512826089    0.607683718598
      4   L      12             0.2222899    0.700115468880    0.391957393099

 N         

      5   S      13            99.1061690    0.154328967295
      5   S      14            18.0523124    0.535328142282
      5   S      15             4.8856602    0.444634542185

      6   L      16             3.7804559   -0.099967229187    0.155916274999
      6   L      17             0.8784966    0.399512826089    0.607683718598
      6   L      18             0.2857144    0.700115468880    0.391957393099

 CL        

      7   S      19           601.3456136    0.154328967295
      7   S      20           109.5358542    0.535328142282
      7   S      21            29.6446769    0.444634542185

      8   L      22            38.9604189   -0.099967229187    0.155916274999
      8   L      23             9.0535635    0.399512826089    0.607683718598
      8   L      24             2.9444998    0.700115468880    0.391957393099

      9   L      25             2.2112785   -0.219620369005    0.010587604289
      9   L      26             0.6169411    0.225595433605    0.595167005266
      9   L      27             0.2414666    0.900398426019    0.462001011973

 H         

     10   S      28             3.4252509    0.154328967295
     10   S      29             0.6239137    0.535328142282
     10   S      30             0.1688554    0.444634542185

 H         

     11   S      31             3.4252509    0.154328967295
     11   S      32             0.6239137    0.535328142282
     11   S      33             0.1688554    0.444634542185

 H         

     12   S      34             3.4252509    0.154328967295
     12   S      35             0.6239137    0.535328142282
     12   S      36             0.1688554    0.444634542185

 H         

     13   S      37             3.4252509    0.154328967295
     13   S      38             0.6239137    0.535328142282
     13   S      39             0.1688554    0.444634542185

 H         

     14   S      40             3.4252509    0.154328967295
     14   S      41             0.6239137    0.535328142282
     14   S      42             0.1688554    0.444634542185

 TOTAL NUMBER OF BASIS SET SHELLS             =   14
 NUMBER OF CARTESIAN GAUSSIAN BASIS FUNCTIONS =   29
 NUMBER OF ELECTRONS                          =   42
 CHARGE OF MOLECULE                           =   -1
 SPIN MULTIPLICITY                            =    1
 NUMBER OF OCCUPIED ORBITALS (ALPHA)          =   21
 NUMBER OF OCCUPIED ORBITALS (BETA )          =   21
 TOTAL NUMBER OF ATOMS                        =    9
 THE NUCLEAR REPULSION ENERGY IS      156.5410031290

     $CONTRL OPTIONS
     ---------------
 SCFTYP=RHF          RUNTYP=SADPOINT     EXETYP=RUN     
 MPLEVL=       0     CITYP =NONE         CCTYP =NONE         VBTYP =NONE    
 DFTTYP=NONE         TDDFT =NONE    
 MULT  =       1     ICHARG=      -1     NZVAR =       0     COORD =UNIQUE  
 PP    =NONE         RELWFN=NONE         LOCAL =NONE         NUMGRD=       F
 ISPHER=      -1     NOSYM =       0     MAXIT =      30     UNITS =ANGS    
 PLTORB=       F     MOLPLT=       F     AIMPAC=       F     FRIEND=        
 NPRINT=       7     IREST =       0     GEOM  =INPUT   
 NORMF =       0     NORMP =       0     ITOL  =      20     ICUT  =       9
 INTTYP=BEST         GRDTYP=BEST         QMTTOL= 1.0E-06

     $SYSTEM OPTIONS
     ---------------
  REPLICATED MEMORY=     1000000 WORDS (ON EVERY NODE).
 DISTRIBUTED MEMDDI=           0 MILLION WORDS IN AGGREGATE,
 MEMDDI DISTRIBUTED OVER   1 PROCESSORS IS           0 WORDS/PROCESSOR.
 TOTAL MEMORY REQUESTED ON EACH PROCESSOR=     1000000 WORDS.
 TIMLIM=      525600.00 MINUTES, OR     365.0 DAYS.
 PARALL= F  BALTYP=  DLB     KDIAG=    0  COREFL= F
 MXSEQ2=     300 MXSEQ3=     150  mem10=         0

          ----------------
          PROPERTIES INPUT
          ----------------

     MOMENTS            FIELD           POTENTIAL          DENSITY
 IEMOM =       1   IEFLD =       0   IEPOT =       0   IEDEN =       0
 WHERE =COMASS     WHERE =NUCLEI     WHERE =NUCLEI     WHERE =NUCLEI  
 OUTPUT=BOTH       OUTPUT=BOTH       OUTPUT=BOTH       OUTPUT=BOTH    
 IEMINT=       0   IEFINT=       0                     IEDINT=       0
                                                       MORB  =       0
          EXTRAPOLATION IN EFFECT
          SOSCF IN EFFECT
 ORBITAL PRINTING OPTION: NPREO=     1    29     2     1

     -------------------------------
     INTEGRAL TRANSFORMATION OPTIONS
     -------------------------------
     NWORD  =            0
     CUTOFF = 1.0E-09     MPTRAN =       0
     DIRTRF =       F     AOINTS =DUP     

          ----------------------
          INTEGRAL INPUT OPTIONS
          ----------------------
 NOPK  =       1 NORDER=       0 SCHWRZ=       T

     ------------------------------------------
     THE POINT GROUP IS C1 , NAXIS= 0, ORDER= 1
     ------------------------------------------

     DIMENSIONS OF THE SYMMETRY SUBSPACES ARE
 A   =   29

 ..... DONE SETTING UP THE RUN .....
 STEP CPU TIME =     0.06 TOTAL CPU TIME =          0.1 (      0.0 MIN)
 TOTAL WALL CLOCK TIME=          0.1 SECONDS, CPU UTILIZATION IS    75.00%


          -----------------------------
          STATIONARY POINT LOCATION RUN
          -----------------------------

 OBTAINING INITIAL HESSIAN, HESS=CALC    

     ---------------------------------
     HESSIAN MATRIX CONTROL PARAMETERS
     ---------------------------------
     METHOD=ANALYTIC   NVIB  =       2   VIBSIZ= 0.01000
     RDHESS=       F   PURIFY=       F   PRTIFC=       F
     VIBANL=       F   DECOMP=       F   PROJCT=       F
     SCLFAC= 1.00000   PRTSCN=       F   NPRT  =       0
     PULCOR=       F   NPUN  =       0   REDOVB=       T
     HSSTYP=GENERAL 
 Old integral subroutine is used

     ------------------------------
     CPHF RESPONSE SOLUTION OPTIONS
     ------------------------------
     POLAR  =       F     NWORD  =       0
     CPHF   =AO      

          ********************
          1 ELECTRON INTEGRALS
          ********************
 ...... END OF ONE-ELECTRON INTEGRALS ......
 STEP CPU TIME =     0.01 TOTAL CPU TIME =          0.1 (      0.0 MIN)
 TOTAL WALL CLOCK TIME=          0.1 SECONDS, CPU UTILIZATION IS    77.78%

          -------------
          GUESS OPTIONS
          -------------
          GUESS =HUCKEL            NORB  =       0          NORDER=       0
          MIX   =       F          PRTMO =       F          PUNMO =       F
          TOLZ  = 1.0E-08          TOLE  = 1.0E-05
          SYMDEN=       F          PURIFY=       F

 INITIAL GUESS ORBITALS GENERATED BY HUCKEL   ROUTINE.
 HUCKEL GUESS REQUIRES     15702 WORDS.

 SYMMETRIES FOR INITIAL GUESS ORBITALS FOLLOW.   BOTH SET(S).
    21 ORBITALS ARE OCCUPIED (    8 CORE ORBITALS).
     9=A       10=A       11=A       12=A       13=A       14=A       15=A   
    16=A       17=A       18=A       19=A       20=A       21=A       22=A   
    23=A       24=A       25=A       26=A       27=A       28=A       29=A   
 ...... END OF INITIAL ORBITAL SELECTION ......
 STEP CPU TIME =     0.03 TOTAL CPU TIME =          0.1 (      0.0 MIN)
 TOTAL WALL CLOCK TIME=          0.1 SECONDS, CPU UTILIZATION IS    90.91%

                    ----------------------
                    AO INTEGRAL TECHNOLOGY
                    ----------------------
     S,P,L SHELL ROTATED AXIS INTEGRALS, REPROGRAMMED BY
        KAZUYA ISHIMURA (IMS) AND JOSE SIERRA (SYNSTAR).
     S,P,D,L SHELL ROTATED AXIS INTEGRALS PROGRAMMED BY
        KAZUYA ISHIMURA (INSTITUTE FOR MOLECULAR SCIENCE).
     S,P,D,F,G SHELL TO TOTAL QUARTET ANGULAR MOMENTUM SUM 5,
        ERIC PROGRAM BY GRAHAM FLETCHER (ELORET AND NASA ADVANCED
        SUPERCOMPUTING DIVISION, AMES RESEARCH CENTER).
     S,P,D,F,G,L SHELL GENERAL RYS QUADRATURE PROGRAMMED BY
        MICHEL DUPUIS (PACIFIC NORTHWEST NATIONAL LABORATORY).

          --------------------
          2 ELECTRON INTEGRALS
          --------------------

 THE -PK- OPTION IS OFF, THE INTEGRALS ARE NOT IN SUPERMATRIX FORM.
 STORING   15000 INTEGRALS/RECORD ON DISK, USING 12 BYTES/INTEGRAL.
 TWO ELECTRON INTEGRAL EVALUATION REQUIRES   89461 WORDS OF MEMORY.
 SCHWARZ INEQUALITY OVERHEAD:       424 INTEGRALS, T=        0.00
 II,JST,KST,LST =  1  1  1  1 NREC =         1 INTLOC =    1
 II,JST,KST,LST =  2  1  1  1 NREC =         1 INTLOC =    2
 II,JST,KST,LST =  3  1  1  1 NREC =         1 INTLOC =   34
 II,JST,KST,LST =  4  1  1  1 NREC =         1 INTLOC =  136
 II,JST,KST,LST =  5  1  1  1 NREC =         1 INTLOC = 1348
 II,JST,KST,LST =  6  1  1  1 NREC =         1 INTLOC = 1938
 II,JST,KST,LST =  7  1  1  1 NREC =         1 INTLOC = 6824
 II,JST,KST,LST =  8  1  1  1 NREC =         1 INTLOC = 8438
 II,JST,KST,LST =  9  1  1  1 NREC =         2 INTLOC = 3571
 II,JST,KST,LST = 10  1  1  1 NREC =         3 INTLOC = 9408
 II,JST,KST,LST = 11  1  1  1 NREC =         4 INTLOC = 1759
 II,JST,KST,LST = 12  1  1  1 NREC =         4 INTLOC =10097
 II,JST,KST,LST = 13  1  1  1 NREC =         5 INTLOC = 4475
 II,JST,KST,LST = 14  1  1  1 NREC =         5 INTLOC =14951
 SCHWARZ INEQUALITY TEST SKIPPED         734 INTEGRAL BLOCKS.
 TOTAL NUMBER OF NONZERO TWO-ELECTRON INTEGRALS =               86606
          6 INTEGRAL RECORDS WERE STORED ON DISK FILE  8.
  ...... END OF TWO-ELECTRON INTEGRALS .....
 STEP CPU TIME =     0.03 TOTAL CPU TIME =          0.1 (      0.0 MIN)
 TOTAL WALL CLOCK TIME=          0.1 SECONDS, CPU UTILIZATION IS    86.67%

          --------------------------
                 RHF SCF CALCULATION
          --------------------------

     NUCLEAR ENERGY =       156.5410031290
     MAXIT =   30     NPUNCH=    2
     EXTRAP=T  DAMP=F  SHIFT=F  RSTRCT=F  DIIS=F  DEM=F  SOSCF=T
     DENSITY MATRIX CONV=  1.00E-05
     SOSCF WILL OPTIMIZE     168 ORBITAL ROTATIONS, SOGTOL=   0.250
     MEMORY REQUIRED FOR RHF ITERS=     36965 WORDS.

 ITER EX DEM     TOTAL ENERGY        E CHANGE  DENSITY CHANGE     ORB. GRAD
   1  0  0     -585.2958471907  -585.2958471907   0.382747328   0.000000000
          ---------------START SECOND ORDER SCF---------------
   2  1  0     -585.5229952410    -0.2271480502   0.100847263   0.019490044
   3  2  0     -585.5311805708    -0.0081853298   0.038051718   0.005084139
   4  3  0     -585.5318174704    -0.0006368996   0.004622647   0.000991927
   5  4  0     -585.5318491098    -0.0000316394   0.020712485   0.001036939
   6  5  0     -585.5319370730    -0.0000879633   0.078516125   0.001236495
   7  6  0     -585.5321849232    -0.0002478502   0.130555965   0.004265819
   8  7  0     -585.5322011353    -0.0000162121   0.061654935   0.008727341
   9  8  0     -585.5325877708    -0.0003866354   0.021181684   0.004057240
  10  9  0     -585.5327978020    -0.0002100312   0.043029057   0.002271389
  11 10  0     -585.5329091619    -0.0001113600   0.010191345   0.000181641
  12 11  0     -585.5329136722    -0.0000045103   0.001133194   0.000082758
  13 12  0     -585.5329139243    -0.0000002520   0.000249950   0.000040113
  14 13  0     -585.5329139634    -0.0000000391   0.000093942   0.000014034
  15 14  0     -585.5329139659    -0.0000000025   0.000058652   0.000006066
  16 15  0     -585.5329139667    -0.0000000008   0.000010261   0.000002128
  17 16  0     -585.5329139668    -0.0000000001   0.000005161   0.000000581

          -----------------
          DENSITY CONVERGED
          -----------------
     TIME TO FORM FOCK OPERATORS=       0.0 SECONDS (       0.0 SEC/ITER)
     TIME TO SOLVE SCF EQUATIONS=       0.1 SECONDS (       0.0 SEC/ITER)

 FINAL RHF ENERGY IS     -585.5329139668 AFTER  17 ITERATIONS

          ------------
          EIGENVECTORS
          ------------

                      1          2          3          4          5
                 -103.2833   -15.0059   -10.8029   -10.5875    -9.9928
                     A          A          A          A          A   
    1  C  1  S    0.000001  -0.000016   0.991975   0.001198   0.000029
    2  C  1  S   -0.000017   0.000301   0.037681  -0.005533   0.000324
    3  C  1  X    0.000002   0.000192  -0.000606  -0.004327  -0.000090
    4  C  1  Y   -0.000008  -0.000201   0.000089   0.000443   0.000056
    5  C  1  Z    0.000008   0.000195  -0.000041  -0.000386  -0.000053
    6  C  2  S   -0.000056   0.000470  -0.000225   0.992028   0.002146
    7  C  2  S    0.000401  -0.007273  -0.005505   0.035200  -0.008194
    8  C  2  X    0.000213  -0.002383   0.004110   0.000816  -0.004005
    9  C  2  Y    0.000211   0.003534  -0.000208  -0.000960  -0.003975
   10  C  2  Z   -0.000218  -0.003416   0.000112   0.000922   0.004136
   11  N  3  S    0.000001   0.993476  -0.000009   0.000355  -0.000009
   12  N  3  S   -0.000022   0.030957   0.000237  -0.007223   0.000416
   13  N  3  X   -0.000017  -0.003146  -0.000226   0.001743   0.000176
   14  N  3  Y   -0.000013   0.000560  -0.000005  -0.002470   0.000156
   15  N  3  Z    0.000013  -0.001154   0.000022   0.002462  -0.000173
   16  CL 4  S    0.994481   0.000002   0.000005   0.000253  -0.376787
   17  CL 4  S    0.015811   0.000006  -0.000005  -0.000808   1.052539
   18  CL 4  X   -0.000059  -0.000008  -0.000002  -0.000261  -0.004047
   19  CL 4  Y   -0.000060   0.000015  -0.000002  -0.000302  -0.003859
   20  CL 4  Z    0.000064  -0.000013   0.000001   0.000307   0.004366
   21  CL 4  S   -0.001887   0.000184   0.000069  -0.004876   0.046842
   22  CL 4  X    0.000137   0.000038  -0.000058   0.002462  -0.003039
   23  CL 4  Y    0.000144  -0.000162  -0.000012   0.002774  -0.003163
   24  CL 4  Z   -0.000150   0.000153   0.000018  -0.002847   0.003299
   25  H  5  S    0.000007   0.000008  -0.007075  -0.000021  -0.000150
   26  H  6  S    0.000013   0.000015  -0.007008  -0.000207  -0.000256
   27  H  7  S    0.000013   0.000006  -0.007033  -0.000201  -0.000267
   28  H  8  S    0.000003  -0.006507  -0.000067  -0.000389  -0.000084
   29  H  9  S    0.000024  -0.002813  -0.000011  -0.000158  -0.000496

                      6          7          8          9         10
                   -7.4349    -7.4309    -7.4305    -0.8250    -0.7157
                     A          A          A          A          A   
    1  C  1  S    0.000013   0.000008   0.000000  -0.060534  -0.035132
    2  C  1  S    0.000333  -0.000767  -0.000075   0.166930   0.098114
    3  C  1  X    0.000044  -0.000152  -0.000011   0.038615   0.003852
    4  C  1  Y    0.000126   0.000310   0.000297  -0.006471   0.014177
    5  C  1  Z   -0.000115  -0.000367   0.000233   0.006145  -0.014485
    6  C  2  S    0.001395   0.000053  -0.000025  -0.128968  -0.017508
    7  C  2  S   -0.011373  -0.000386   0.000200   0.291201   0.048862
    8  C  2  X   -0.005290  -0.003110  -0.000209   0.044253  -0.007299
    9  C  2  Y   -0.005381   0.001783  -0.002080  -0.046300   0.090598
   10  C  2  Z    0.005472  -0.001343  -0.002544   0.044311  -0.092755
   11  N  3  S   -0.000009  -0.000028  -0.000002  -0.176790   0.115274
   12  N  3  S    0.000483   0.001061   0.000084   0.582509  -0.393909
   13  N  3  X    0.000225  -0.000614  -0.000058  -0.080931   0.049553
   14  N  3  Y    0.000258   0.000162   0.000230   0.029781   0.029206
   15  N  3  Z   -0.000262  -0.000201   0.000204  -0.047283  -0.018642
   16  CL 4  S    0.003378  -0.000051   0.000026   0.032041   0.075260
   17  CL 4  S   -0.009610   0.000144  -0.000075  -0.106589  -0.248509
   18  CL 4  X   -0.548726   0.816770   0.096412   0.011146   0.012795
   19  CL 4  Y   -0.556061  -0.454969   0.679165   0.014145   0.008050
   20  CL 4  Z    0.604163   0.323057   0.712727  -0.014748  -0.008755
   21  CL 4  S    0.005831   0.000030  -0.000110   0.333210   0.818784
   22  CL 4  X   -0.027157   0.034357   0.004109  -0.031144  -0.035378
   23  CL 4  Y   -0.027645  -0.019169   0.028554  -0.038851  -0.021145
   24  CL 4  Z    0.029857   0.013623   0.029835   0.040676   0.023292
   25  H  5  S   -0.000134   0.000242   0.000025   0.044007   0.017368
   26  H  6  S   -0.000157   0.000269   0.000293   0.035029   0.035176
   27  H  7  S   -0.000176   0.000326  -0.000235   0.035517   0.036202
   28  H  8  S   -0.000085  -0.000143  -0.000012   0.138572  -0.135230
   29  H  9  S   -0.000300  -0.000628  -0.000046   0.055261  -0.041747

                     11         12         13         14         15
                   -0.6737    -0.4123    -0.3181    -0.3087    -0.2830
                     A          A          A          A          A   
    1  C  1  S   -0.204410   0.019233   0.003183  -0.001013  -0.003139
    2  C  1  S    0.579778  -0.051097  -0.011624   0.003896   0.018993
    3  C  1  X   -0.051698   0.221011  -0.069654  -0.002721   0.386828
    4  C  1  Y    0.000147  -0.000410  -0.369436  -0.362026  -0.058895
    5  C  1  Z    0.001980  -0.007057   0.348600  -0.380366   0.057240
    6  C  2  S   -0.018694  -0.155676  -0.000555   0.000992  -0.050398
    7  C  2  S    0.050569   0.473022  -0.004791  -0.002574   0.174402
    8  C  2  X   -0.116471   0.028989   0.014796  -0.002443  -0.299218
    9  C  2  Y    0.010842  -0.027709  -0.084041  -0.118697   0.084414
   10  C  2  Z   -0.009758   0.022139   0.086509  -0.135164  -0.072354
   11  N  3  S    0.049260   0.035388   0.015057  -0.000320   0.045388
   12  N  3  S   -0.171545  -0.142462  -0.070171   0.003236  -0.197025
   13  N  3  X   -0.006064  -0.031187  -0.071634   0.004089  -0.251999
   14  N  3  Y    0.003825   0.275117   0.068399  -0.076667  -0.219467
   15  N  3  Z   -0.001801  -0.291028  -0.087729  -0.062537   0.189772
   16  CL 4  S   -0.028206  -0.026249   0.007568  -0.000312  -0.000858
   17  CL 4  S    0.092831   0.083724  -0.023788   0.000926   0.002635
   18  CL 4  X    0.004747   0.038266  -0.037645   0.002021   0.058117
   19  CL 4  Y   -0.002491   0.046916  -0.011339   0.020082  -0.018538
   20  CL 4  Z    0.002519  -0.047882   0.012846   0.018968   0.016964
   21  CL 4  S   -0.312600  -0.333974   0.101519  -0.004899  -0.012598
   22  CL 4  X   -0.014496  -0.120832   0.125182  -0.006463  -0.198223
   23  CL 4  Y    0.006675  -0.149254   0.035302  -0.067673   0.064267
   24  CL 4  Z   -0.006746   0.152243  -0.040401  -0.064643  -0.058974
   25  H  5  S    0.201543  -0.116878   0.484817  -0.018338  -0.065788
   26  H  6  S    0.183975  -0.069560  -0.214972   0.420726  -0.137007
   27  H  7  S    0.187199  -0.072374  -0.253504  -0.402730  -0.132988
   28  H  8  S   -0.047132  -0.336563  -0.070255   0.005283   0.295688
   29  H  9  S   -0.030548  -0.067608  -0.069180   0.004778  -0.229475

                     16         17         18         19         20
                   -0.1907    -0.1589    -0.1319    -0.0955    -0.0837
                     A          A          A          A          A   
    1  C  1  S   -0.000718  -0.002814   0.030766  -0.026970  -0.003080
    2  C  1  S    0.002268   0.010489  -0.122757   0.109666   0.012455
    3  C  1  X   -0.003752   0.029622  -0.320928   0.234393   0.026841
    4  C  1  Y    0.114602  -0.093100   0.034355  -0.003096   0.007819
    5  C  1  Z   -0.108839  -0.098395  -0.043107  -0.001645   0.018095
    6  C  2  S    0.005780  -0.002145  -0.003257  -0.008352   0.002147
    7  C  2  S   -0.052432   0.006345   0.014192   0.037447  -0.006451
    8  C  2  X   -0.043545  -0.025189   0.265277  -0.131378  -0.022193
    9  C  2  Y   -0.243047   0.243745   0.062660   0.017479  -0.115437
   10  C  2  Z    0.237345   0.289328  -0.017746  -0.009311  -0.142544
   11  N  3  S   -0.009005  -0.004686   0.022004   0.022528   0.004514
   12  N  3  S    0.015284   0.018941  -0.126394  -0.098136  -0.015516
   13  N  3  X   -0.332731   0.027910  -0.352384   0.068288   0.011466
   14  N  3  Y    0.101774   0.368978  -0.048806  -0.054421  -0.467247
   15  N  3  Z   -0.235369   0.340740   0.017951   0.112741  -0.442827
   16  CL 4  S    0.011603   0.000853  -0.003263   0.000435  -0.000262
   17  CL 4  S   -0.034792  -0.002385   0.008859  -0.001121   0.000820
   18  CL 4  X   -0.103175  -0.009472   0.006084  -0.237386  -0.011479
   19  CL 4  Y   -0.090222  -0.144673   0.086431   0.099536  -0.144965
   20  CL 4  Z    0.097982  -0.114517  -0.128002  -0.079386  -0.148635
   21  CL 4  S    0.178999   0.015415  -0.062914   0.009052  -0.003689
   22  CL 4  X    0.347892   0.031743  -0.014278   0.849674   0.041727
   23  CL 4  Y    0.303927   0.508460  -0.297317  -0.358783   0.521489
   24  CL 4  Z   -0.330618   0.405553   0.444373   0.286671   0.534399
   25  H  5  S   -0.182180  -0.020607   0.056389  -0.084252   0.001028
   26  H  6  S    0.093120   0.151102   0.086568  -0.027647  -0.055171
   27  H  7  S    0.103048  -0.151157   0.061062  -0.028528   0.038062
   28  H  8  S   -0.069035  -0.018341   0.231413   0.051226  -0.015853
   29  H  9  S   -0.312042  -0.012884  -0.443440   0.100317   0.104563

                     21         22         23         24         25
                    0.2408     0.5509     0.7496     0.8899     0.9333
                     A          A          A          A          A   
    1  C  1  S    0.005119   0.026132   0.037226   0.036713   0.065642
    2  C  1  S   -0.026850  -0.130616  -0.198246  -0.266423  -0.428050
    3  C  1  X   -0.032934  -0.142986  -0.172548   0.771265   0.365531
    4  C  1  Y    0.022097  -0.013506   0.177074  -0.094341   0.608531
    5  C  1  Z    0.017927  -0.025849  -0.157253   0.084785  -0.690384
    6  C  2  S    0.000302  -0.026174  -0.162960   0.096365   0.056845
    7  C  2  S   -0.003891   0.109324   0.841225  -0.556589  -0.340283
    8  C  2  X   -0.020686  -0.029386   0.343480   0.361209  -0.108113
    9  C  2  Y    0.589365  -0.294070   0.382051  -0.152738   0.079618
   10  C  2  Z    0.665393  -0.008877  -0.339948   0.164456  -0.075635
   11  N  3  S    0.024892   0.110337   0.075757   0.061467  -0.055172
   12  N  3  S   -0.133158  -0.614962  -0.469966  -0.429659   0.380159
   13  N  3  X   -0.147570  -0.568477   0.163553   0.306858  -0.293655
   14  N  3  Y   -0.396370   0.214007   0.063321   0.343304   0.030638
   15  N  3  Z   -0.399770   0.068537  -0.100647  -0.373746  -0.011840
   16  CL 4  S    0.001374   0.002198  -0.023832   0.004695   0.002374
   17  CL 4  S   -0.003817  -0.006044   0.067391  -0.012738  -0.006379
   18  CL 4  X    0.012322   0.022354  -0.101336   0.034192   0.000074
   19  CL 4  Y    0.059783   0.001524  -0.106428   0.015470   0.015642
   20  CL 4  Z    0.039963  -0.020973   0.113401  -0.015784  -0.015747
   21  CL 4  S    0.025100   0.040631  -0.425986   0.090831   0.046937
   22  CL 4  X   -0.048400  -0.088701   0.420249  -0.144017  -0.003867
   23  CL 4  Y   -0.231827  -0.006607   0.441530  -0.067355  -0.066190
   24  CL 4  Z   -0.153630   0.083382  -0.469532   0.068658   0.066675
   25  H  5  S   -0.013798  -0.040651   0.278135   0.254697   1.107582
   26  H  6  S    0.204111  -0.005613  -0.077471   0.384798  -0.196997
   27  H  7  S   -0.178882   0.108726  -0.112778   0.381828  -0.136568
   28  H  8  S    0.015822   0.227223   0.507985   0.740001  -0.326596
   29  H  9  S    0.245547   0.819212   0.023440  -0.061890   0.068376

                     26         27         28         29
                    0.9544     0.9626     1.1255     1.3364
                     A          A          A          A   
    1  C  1  S    0.022731  -0.202763  -0.117883   0.026543
    2  C  1  S   -0.142247   1.277232   0.742925  -0.181081
    3  C  1  X   -0.007176  -0.162289   0.546151  -0.186220
    4  C  1  Y   -0.860097   0.212305  -0.201584  -0.219882
    5  C  1  Z   -0.720078  -0.411466   0.194918   0.226265
    6  C  2  S   -0.012845   0.074032   0.078229   0.095007
    7  C  2  S    0.075176  -0.431170  -0.486886  -0.676780
    8  C  2  X    0.000455   0.082233   0.887722  -0.654717
    9  C  2  Y    0.180827  -0.070090   0.332946   0.698847
   10  C  2  Z    0.149983   0.113896  -0.343315  -0.695421
   11  N  3  S   -0.001554   0.023626  -0.050114  -0.092992
   12  N  3  S    0.009773  -0.170682   0.362837   0.736527
   13  N  3  X    0.007653   0.123573  -0.565992  -0.345631
   14  N  3  Y   -0.082214   0.268952  -0.141676   0.660164
   15  N  3  Z   -0.009230  -0.291614   0.169282  -0.659052
   16  CL 4  S   -0.001095   0.005724  -0.009347  -0.001026
   17  CL 4  S    0.003031  -0.015770   0.024203   0.002361
   18  CL 4  X   -0.004726   0.028587  -0.024753  -0.026046
   19  CL 4  Y    0.004211   0.020275  -0.041079   0.006624
   20  CL 4  Z    0.012624  -0.019046   0.042770  -0.005962
   21  CL 4  S   -0.020508   0.108309  -0.195658  -0.024498
   22  CL 4  X    0.020194  -0.122042   0.112134   0.115052
   23  CL 4  Y   -0.016331  -0.088399   0.183423  -0.028827
   24  CL 4  Z   -0.052515   0.083446  -0.190645   0.026086
   25  H  5  S   -0.002722  -0.261441  -0.252914  -0.182413
   26  H  6  S   -0.726332  -0.869774  -0.048914   0.117860
   27  H  7  S    0.921362  -0.669566  -0.047661   0.119034
   28  H  8  S   -0.041511   0.453897  -0.448739   0.214115
   29  H  9  S   -0.011442  -0.020696   0.149979   0.037104
 ...... END OF RHF CALCULATION ......
 STEP CPU TIME =     0.10 TOTAL CPU TIME =          0.2 (      0.0 MIN)
 TOTAL WALL CLOCK TIME=          0.3 SECONDS, CPU UTILIZATION IS    88.46%

     ----------------------------------------------------------------
     PROPERTY VALUES FOR THE RHF   SELF-CONSISTENT FIELD WAVEFUNCTION
     ----------------------------------------------------------------

          -----------------
          ENERGY COMPONENTS
          -----------------

         WAVEFUNCTION NORMALIZATION =       1.0000000000

                ONE ELECTRON ENERGY =   -1132.2981959077
                TWO ELECTRON ENERGY =     390.2242788119
           NUCLEAR REPULSION ENERGY =     156.5410031290
                                      ------------------
                       TOTAL ENERGY =    -585.5329139668

 ELECTRON-ELECTRON POTENTIAL ENERGY =     390.2242788119
  NUCLEUS-ELECTRON POTENTIAL ENERGY =   -1711.3745274850
   NUCLEUS-NUCLEUS POTENTIAL ENERGY =     156.5410031290
                                      ------------------
             TOTAL POTENTIAL ENERGY =   -1164.6092455441
               TOTAL KINETIC ENERGY =     579.0763315773
                 VIRIAL RATIO (V/T) =       2.0111497950

          ---------------------------------------
          MULLIKEN AND LOWDIN POPULATION ANALYSES
          ---------------------------------------

     ATOMIC MULLIKEN POPULATION IN EACH MOLECULAR ORBITAL

                      1          2          3          4          5

                  2.000000   2.000000   2.000000   2.000000   2.000000

    1            -0.000000   0.000003   2.003715  -0.000792   0.000000
    2             0.000007  -0.001352  -0.000759   2.002514  -0.001182
    3            -0.000000   2.002265   0.000001  -0.001185   0.000001
    4             1.999993   0.000001   0.000000  -0.000525   2.001182
    5             0.000000   0.000000  -0.000996  -0.000000  -0.000000
    6             0.000000   0.000000  -0.000978  -0.000003  -0.000000
    7             0.000000   0.000000  -0.000982  -0.000003  -0.000000
    8             0.000000  -0.000796  -0.000000  -0.000006  -0.000000
    9             0.000000  -0.000121  -0.000000  -0.000001  -0.000001

                      6          7          8          9         10

                  2.000000   2.000000   2.000000   2.000000   2.000000

    1             0.000001   0.000000   0.000000   0.119656   0.034666
    2            -0.000887  -0.000051  -0.000044   0.446121   0.142838
    3             0.000002   0.000001   0.000000   0.954580   0.368678
    4             2.000885   2.000051   2.000044   0.289025   1.330672
    5            -0.000000  -0.000000  -0.000000   0.016254   0.001624
    6            -0.000000  -0.000000  -0.000000   0.010760   0.008198
    7            -0.000000  -0.000000  -0.000000   0.010919   0.008527
    8            -0.000000  -0.000000  -0.000000   0.128933   0.094726
    9            -0.000000  -0.000001  -0.000000   0.023752   0.010071

                     11         12         13         14         15

                  2.000000   2.000000   2.000000   2.000000   2.000000

    1             1.003417   0.184865   0.876409   0.914167   0.481827
    2             0.113812   0.481914   0.063544   0.123822   0.428308
    3             0.063841   0.589954   0.062310   0.029669   0.510255
    4             0.179217   0.318426   0.060691   0.023144   0.116012
    5             0.224125   0.044283   0.610774   0.000860   0.010322
    6             0.198234   0.015514   0.126818   0.475857   0.047340
    7             0.202952   0.016884   0.174683   0.432354   0.044594
    8             0.008995   0.331942   0.010344   0.000060   0.210786
    9             0.005408   0.016219   0.014427   0.000067   0.150556

                     16         17         18         19         20

                  2.000000   2.000000   2.000000   2.000000   2.000000

    1             0.064050   0.049629   0.279731   0.141640   0.002674
    2             0.360361   0.401974   0.215057   0.048587   0.083651
    3             0.458241   0.592584   0.344943   0.049127   0.871039
    4             0.744926   0.863486   0.576920   1.716268   1.012675
    5             0.069408   0.000828   0.006386   0.012589   0.000001
    6             0.018511   0.045435   0.014527   0.001363   0.005247
    7             0.022804   0.045294   0.007481   0.001501   0.002429
    8             0.011151   0.000584   0.099095   0.005218   0.000512
    9             0.250549   0.000185   0.455860   0.023707   0.021771

                     21

                  2.000000

    1             0.002838
    2             1.272028
    3             0.462689
    4             0.092198
    5             0.000199
    6             0.045760
    7             0.035073
    8             0.000319
    9             0.088895

               ----- POPULATIONS IN EACH AO -----
                             MULLIKEN      LOWDIN
              1  C  1  S      1.99199     1.98523
              2  C  1  S      1.17964     1.01255
              3  C  1  X      1.06722     1.08867
              4  C  1  Y      0.96066     0.99455
              5  C  1  Z      0.95898     0.99319
              6  C  2  S      1.99167     1.98254
              7  C  2  S      0.98629     0.97346
              8  C  2  X      0.70593     0.78880
              9  C  2  Y      1.15278     1.21657
             10  C  2  Z      1.34359     1.38755
             11  N  3  S      1.99516     1.99081
             12  N  3  S      1.46229     1.29363
             13  N  3  X      0.93959     0.95528
             14  N  3  Y      1.47080     1.48608
             15  N  3  Z      1.49116     1.50603
             16  CL 4  S      1.99997     1.99986
             17  CL 4  S      1.99861     1.99853
             18  CL 4  X      1.99660     1.99407
             19  CL 4  Y      1.99662     1.99415
             20  CL 4  Z      1.99607     1.99315
             21  CL 4  S      1.94397     1.89555
             22  CL 4  X      1.80789     1.80526
             23  CL 4  Y      1.80896     1.80734
             24  CL 4  Z      1.77660     1.77398
             25  H  5  S      0.99666     1.01218
             26  H  6  S      1.01258     1.03346
             27  H  7  S      1.00451     1.02549
             28  H  8  S      0.90186     0.94137
             29  H  9  S      1.06134     1.07069

          ----- MULLIKEN ATOMIC OVERLAP POPULATIONS -----
          (OFF-DIAGONAL ELEMENTS NEED TO BE MULTIPLIED BY 2)

             1           2           3           4           5

    1    4.6897280
    2    0.3950043   5.4014770
    3   -0.0240179   0.2954735   6.5634276
    4   -0.0236914   0.2211514  -0.0248644  17.1520773
    5    0.3794670  -0.0160359  -0.0025639   0.0006706   0.6807282
    6    0.3681016  -0.0343861   0.0011290   0.0004930  -0.0238391
    7    0.3756755  -0.0316161   0.0007479  -0.0009212  -0.0219570
    8   -0.0024064  -0.0348154   0.3407127   0.0014283   0.0001735
    9    0.0006350  -0.0159914   0.2089497  -0.0010523   0.0000138

             6           7           8           9

    6    0.7353197
    7   -0.0343261   0.7170049
    8    0.0000706  -0.0000429   0.6144062
    9    0.0000202  -0.0000536  -0.0176632   0.8864838

          TOTAL MULLIKEN AND LOWDIN ATOMIC POPULATIONS
       ATOM         MULL.POP.    CHARGE          LOW.POP.     CHARGE
    1 C             6.158496   -0.158496         6.074188   -0.074188
    2 C             6.180261   -0.180261         6.348915   -0.348915
    3 N             7.358994   -0.358994         7.231832   -0.231832
    4 CL           17.325291   -0.325291        17.261876   -0.261876
    5 H             0.996657    0.003343         1.012183   -0.012183
    6 H             1.012583   -0.012583         1.033463   -0.033463
    7 H             1.004511   -0.004511         1.025488   -0.025488
    8 H             0.901863    0.098137         0.941370    0.058630
    9 H             1.061342   -0.061342         1.070686   -0.070686

          -------------------------------
          BOND ORDER AND VALENCE ANALYSIS     BOND ORDER THRESHOLD=0.050
          -------------------------------

                   BOND                       BOND                       BOND
  ATOM PAIR DIST  ORDER      ATOM PAIR DIST  ORDER      ATOM PAIR DIST  ORDER
    1   2  1.531  0.999        1   5  1.088  0.984        1   6  1.091  0.961
    1   7  1.091  0.965        2   3  1.299  0.973        2   4  1.737  0.853
    2   9  2.452  0.085        3   8  1.039  0.934        3   9  1.500  0.861

                       TOTAL       BONDED        FREE
      ATOM            VALENCE     VALENCE     VALENCE
    1 C                 3.960       3.960       0.000
    2 C                 2.975       2.975       0.000
    3 N                 2.804       2.804      -0.000
    4 CL                0.919       0.919       0.000
    5 H                 1.000       1.000      -0.000
    6 H                 1.000       1.000       0.000
    7 H                 1.000       1.000      -0.000
    8 H                 0.990       0.990      -0.000
    9 H                 0.996       0.996      -0.000

          ---------------------
          ELECTROSTATIC MOMENTS
          ---------------------

 POINT   1           X           Y           Z (BOHR)    CHARGE
                 5.372488    0.429443   -0.493185       -1.00 (A.U.)
         DX          DY          DZ         /D/  (DEBYE)
    -0.620643    0.042433   -0.349025    0.713314
 ...... END OF PROPERTY EVALUATION ......
 STEP CPU TIME =     0.02 TOTAL CPU TIME =          0.2 (      0.0 MIN)
 TOTAL WALL CLOCK TIME=          0.3 SECONDS, CPU UTILIZATION IS    89.29%

     ---------------------------------------------
     1ST AND 2ND INTEGRAL DERIVATIVE CONTRIBUTIONS
     ---------------------------------------------
 ...... END OF 1-ELECTRON GRAD+HESS+FOCKDER ......
 STEP CPU TIME =     0.04 TOTAL CPU TIME =          0.3 (      0.0 MIN)
 TOTAL WALL CLOCK TIME=          0.3 SECONDS, CPU UTILIZATION IS    90.63%

     ----------------------------------------------
     TWO ELECTRON INTEGRAL DERIVATIVE CONTRIBUTIONS
     ----------------------------------------------

      23217 WORDS REQUIRED,    999078 WORDS AVAILABLE
 THE COARSE/FINE SCHWARZ SCREENINGS SKIPPED        695/        70 BLOCKS.
 THE NUMBER OF DERIVATIVE INTEGRAL BLOCKS COMPUTED WAS      4756
 STEP CPU TIME =     1.32 TOTAL CPU TIME =          1.6 (      0.0 MIN)
 TOTAL WALL CLOCK TIME=          1.6 SECONDS, CPU UTILIZATION IS    98.17%
 ...... END OF 2-ELECTRON GRAD+HESS+FOCKDER ......
 STEP CPU TIME =     0.00 TOTAL CPU TIME =          1.6 (      0.0 MIN)
 TOTAL WALL CLOCK TIME=          1.6 SECONDS, CPU UTILIZATION IS    98.17%

     -------------------------------------------
     COUPLED-PERTURBED CLOSED SHELL HARTREE-FOCK
     -------------------------------------------
 THE CPHF HAS     168 INDEPENDENT ORBITAL ROTATIONS.
 SOLVING FOR   27 NUCLEAR RESPONSES AND 0 ELECTRIC FIELD RESPONSES
           -FA- WILL USE     19479 WORDS,
           -TA- WILL USE     35243 WORDS,
          -FCK- WILL USE     74245 WORDS,
 -WXY- AND -YA- WILL USE     79752 WORDS,
               THERE ARE    999078 WORDS OF REPLICATED MEMORY AVAILABLE.
        TIME FOR -FA-   =        0.000
        TIME FOR -TA-   =        0.010
        TIME FOR -FCK-  =        0.010
 PRECONDITIONED CONJUGATE GRADIENT SOLVER     CONV. TOLERANCE=5.00E-05
 ITER    RESPONSE ERROR        IMPROVED
   1       7.33860E-01            27
   2       1.82753E+00            27
   3       9.83868E-01            27
   4       3.17538E-01            27
   5       1.10738E-01            27
   6       4.00362E-02            27
   7       1.16839E-02            27
   8       4.64253E-03            27
   9       1.09789E-03            27
  10       2.73540E-04            27
  11       7.33097E-05            26
  12       1.13665E-05             6
 THE CPHF HAS CONVERGED AFTER 12 ITERATIONS.
 IT REQUIRED   302 FOCK-LIKE BUILDS TO FIND THE  27 SYMMETRY UNIQUE RESPONSES.
        TIME FOR -YA-   =        0.100
 ...... DONE WITH CPHF CONTRIBUTIONS ......
 STEP CPU TIME =     0.13 TOTAL CPU TIME =          1.7 (      0.0 MIN)
 TOTAL WALL CLOCK TIME=          1.8 SECONDS, CPU UTILIZATION IS    98.31%

          PARAMETERS CONTROLLING GEOMETRY SEARCH ARE
          METHOD =QA                  UPHESS =POWELL  
          NNEG   =         1          NFRZ   =         0
          NSTEP  =        50          IFOLOW =         1
          HESS   =CALC                RESTAR =         F
          IHREP  =         5          HSSEND =         T
          NPRT   =         0          NPUN   =         0
          OPTTOL = 5.000E-04          RMIN   = 1.500E-03
          RMAX   = 1.000E-01          RLIM   = 7.000E-02
          DXMAX  = 2.000E-01          PURIFY =         F
          MOVIE  =         F          TRUPD  =         T
          TRMAX  = 3.000E-01          TRMIN  = 5.000E-02
          ITBMAT =         5          STPT   =         F
          STSTEP = 1.000E-02          PROJCT=          T

 THE GRADIENT AT THE INITIAL GEOMETRY IS KNOWN.
 PROCEEDING DIRECTLY TO THE GEOMETRY SEARCH...

          NSERCH=  0     ENERGY=    -585.5329140

                                 -----------------------
                                 GRADIENT (HARTREE/BOHR)
                                 -----------------------
        ATOM     ZNUC       DE/DX         DE/DY         DE/DZ
 --------------------------------------------------------------
    1  C            6.0    -0.0742927     0.0097150     0.0213818
    2  C            6.0     0.1765187    -0.1189331     0.1460636
    3  N            7.0    -0.2588229     0.1412402    -0.2371272
    4  CL          17.0    -0.0256311    -0.0400711     0.0204979
    5  H            1.0     0.0040726    -0.0018059     0.0017324
    6  H            1.0     0.0302779    -0.0022925     0.0031193
    7  H            1.0     0.0194736    -0.0017781     0.0003864
    8  H            1.0    -0.0207319    -0.0062227     0.0154903
    9  H            1.0     0.1491358     0.0201482     0.0284556

          MAXIMUM GRADIENT = 0.2588229    RMS GRADIENT = 0.0950755

 NSERCH:   0  E=     -585.5329139668  GRAD. MAX=  0.2588229  R.M.S.=  0.0950755

          FORCE CONSTANT MATRIX NOT UPDATED --- TAKING FIRST STEP
          THE FIRST FEW LOCAL MODES AND EIGENVALUES ARE

  MODE           1           2           3           4           5
         -2.634929   -0.379095   -0.130172   -0.005850    0.005226
  MODE
   1     -0.067090   -0.047928    0.021725   -0.011959    0.076235
   2     -0.053689   -0.063967    0.037489    0.005519    0.037495
   3     -0.092368   -0.113318    0.057178   -0.006436    0.011865
   4      0.077783   -0.011495    0.019483   -0.010424    0.119496
   5     -0.336161    0.528368    0.286407   -0.037094    0.128153
   6      0.005612    0.532072    0.290826   -0.047444   -0.276263
   7     -0.434954   -0.259674    0.123862   -0.025675   -0.300546
   8      0.553449   -0.216796    0.305716    0.024366   -0.061143
   9      0.231701   -0.240485    0.333375    0.024643   -0.120429
  10     -0.015403   -0.027099   -0.018141   -0.025458    0.340203
  11      0.079439   -0.066065   -0.334123   -0.294701    0.011754
  12      0.084782   -0.032044   -0.293872   -0.310258   -0.105411
  13      0.004020    0.005847    0.004180   -0.007451    0.480850
  14      0.001207   -0.005000   -0.007970   -0.324799   -0.095933
  15     -0.002419   -0.015889   -0.001521   -0.322650    0.158476
  16     -0.017349   -0.014973    0.104916    0.073175   -0.199406
  17      0.008259   -0.084618    0.011851    0.466396   -0.114209
  18     -0.006933   -0.070406    0.016009   -0.132060    0.144728
  19      0.056993    0.009600   -0.086930   -0.091213   -0.135805
  20     -0.016796   -0.052616    0.008215   -0.103848   -0.063424
  21      0.008972   -0.081193    0.016009    0.458370    0.163000
  22     -0.070056   -0.063371   -0.061214    0.000262   -0.414395
  23     -0.029801    0.084396   -0.401954    0.229521    0.005954
  24     -0.058392    0.119823   -0.450873    0.242852   -0.169187
  25      0.466055    0.409093   -0.107881    0.098743    0.033368
  26     -0.205906   -0.123701    0.094369    0.034640    0.151353
  27     -0.170955   -0.098561    0.032869    0.092982    0.193221

  MODE           6           7           8           9          10
          0.022481    0.035952    0.085328    0.093871    0.095205
  MODE
   1      0.078300    0.137504   -0.037873   -0.011986    0.044025
   2     -0.059210   -0.048934    0.126876    0.100947    0.120544
   3     -0.021456    0.042260    0.133112   -0.140831   -0.021947
   4      0.064017    0.135570    0.059480   -0.041012   -0.107866
   5      0.181851    0.001140   -0.032718    0.024512   -0.128958
   6      0.120563   -0.024932   -0.130893    0.035611    0.027982
   7      0.054834   -0.019013    0.079858    0.072051   -0.300429
   8      0.243588   -0.073822   -0.051978    0.054676   -0.180542
   9      0.121869    0.020411   -0.103960    0.058633    0.090836
  10      0.098126   -0.607032    0.056017   -0.140798   -0.210163
  11      0.113741    0.344086    0.048773    0.064556   -0.088123
  12      0.068805   -0.336863   -0.095003   -0.045631    0.042982
  13      0.254651    0.105512   -0.152301    0.425915    0.407291
  14     -0.173928   -0.015480    0.169358   -0.020436    0.042542
  15     -0.018963    0.046259    0.107875   -0.022972    0.105490
  16      0.132562    0.236242    0.460031   -0.429123    0.386031
  17     -0.114563   -0.029165   -0.058694    0.194038    0.121877
  18     -0.022920    0.017357    0.068198   -0.075596   -0.119611
  19     -0.111513    0.288182   -0.697202   -0.265827   -0.123762
  20     -0.130563   -0.011374    0.010408    0.076227    0.121188
  21      0.036504    0.020367   -0.012356   -0.225302   -0.109162
  22     -0.080985   -0.261515    0.010163    0.378494    0.011487
  23      0.338872    0.038094    0.058504   -0.155439   -0.301184
  24      0.097021   -0.068772   -0.062620    0.102257    0.293540
  25     -0.489991   -0.015450    0.221827    0.012287   -0.106615
  26     -0.399789   -0.204545   -0.270528   -0.339081    0.292655
  27     -0.381422    0.283914    0.095647    0.313832   -0.310109
 LOCAL CURVATURE   2 OF THE APPROXIMATE HESSIAN HAS EIGENVALUE=   -0.379095
 *** THIS MODE HAS AN INCORRECT CURVATURE ***
 THE COMPONENTS OF THIS MODE FOLLOWS:
       -0.047928      -0.063967      -0.113318      -0.011495       0.528368
        0.532072      -0.259674      -0.216796      -0.240485      -0.027099
       -0.066065      -0.032044       0.005847      -0.005000      -0.015889
       -0.014973      -0.084618      -0.070406       0.009600      -0.052616
       -0.081193      -0.063371       0.084396       0.119823       0.409093
       -0.123701      -0.098561
 LOCAL CURVATURE   3 OF THE APPROXIMATE HESSIAN HAS EIGENVALUE=   -0.130172
 *** THIS MODE HAS AN INCORRECT CURVATURE ***
 THE COMPONENTS OF THIS MODE FOLLOWS:
        0.021725       0.037489       0.057178       0.019483       0.286407
        0.290826       0.123862       0.305716       0.333375      -0.018141
       -0.334123      -0.293872       0.004180      -0.007970      -0.001521
        0.104916       0.011851       0.016009      -0.086930       0.008215
        0.016009      -0.061214      -0.401954      -0.450873      -0.107881
        0.094369       0.032869
 LOCAL CURVATURE   4 OF THE APPROXIMATE HESSIAN HAS EIGENVALUE=   -0.005850
 *** THIS MODE HAS AN INCORRECT CURVATURE ***
 THE COMPONENTS OF THIS MODE FOLLOWS:
       -0.011959       0.005519      -0.006436      -0.010424      -0.037094
       -0.047444      -0.025675       0.024366       0.024643      -0.025458
       -0.294701      -0.310258      -0.007451      -0.324799      -0.322650
        0.073175       0.466396      -0.132060      -0.091213      -0.103848
        0.458370       0.000262       0.229521       0.242852       0.098743
        0.034640       0.092982
          HESSIAN MODE FOLLOWING SWITCHED ON, FOLLOWING MODE   1
          FOLLOWING MODE  1 WITH EIGENVALUE   -2.63493 AND COMPONENTS
             -0.06709 -0.05369 -0.09237  0.07778 -0.33616  0.00561
             -0.43495  0.55345  0.23170 -0.01540  0.07944  0.08478
              0.00402  0.00121 -0.00242 -0.01735  0.00826 -0.00693
              0.05699 -0.01680  0.00897 -0.07006 -0.02980 -0.05839
              0.46605 -0.20591 -0.17095
          TRIM/QA LAMBDA FOR     TS MODE  =   1.72208590
          TRIM/QA LAMBDA FOR NON-TS MODES =  -1.72208590
          TRIM/QA STEP HAS LENGTH         =   0.200000
          RADIUS OF STEP TAKEN=   0.20000  CURRENT TRUST RADIUS=   0.20000

 BEGINNING GEOMETRY SEARCH POINT NSERCH=   1 ...

 COORDINATES OF ALL ATOMS ARE (ANGS)
   ATOM   CHARGE       X              Y              Z
 ------------------------------------------------------------
 C           6.0   1.0673662961   0.0288091824  -0.0431425022
 C           6.0   2.5589096444  -0.0926321470   0.0124444226
 N           7.0   3.2264698193  -0.8423426939   0.9298842412
 CL         17.0   3.5472693300   0.9536932414  -0.9916451466
 H           1.0   0.5919430861  -0.6483813277   0.6718208246
 H           1.0   0.7376317329  -0.2099543976  -1.0542494688
 H           1.0   0.7642914365   1.0593744401   0.1838926141
 H           1.0   2.6656890917  -1.5082001433   1.4920473652
 H           1.0   4.6756270830  -0.9932288044   0.8959117798

          INTERNUCLEAR DISTANCES (ANGS.)
          ------------------------------

                1 C          2 C          3 N          4 CL         5 H     

   1 C       0.0000000    1.4975111 *  2.5233737 *  2.8115808 *  1.0935204 *
   2 C       1.4975111 *  0.0000000    1.3599258 *  1.7549494 *  2.1476945 *
   3 N       2.5233737 *  1.3599258 *  0.0000000    2.6497042 *  2.6542323 *
   4 CL      2.8115808 *  1.7549494 *  2.6497042 *  0.0000000    3.7506953  
   5 H       1.0935204 *  2.1476945 *  2.6542323 *  3.7506953    0.0000000  
   6 H       1.0899863 *  2.1139190 *  3.2451528    3.0417197    1.7868302 *
   7 H       1.0979363 *  2.1394317 *  3.1992740    3.0229164    1.7844348 *
   8 H       2.6970060 *  2.0504779 *  1.0362763 *  3.6064985    2.3900800 *
   9 H       3.8659967    2.4641594 *  1.4573872 *  2.9371019 *  4.1043406  

                6 H          7 H          8 H          9 H     

   1 C       1.0899863 *  1.0979363 *  2.6970060 *  3.8659967  
   2 C       2.1139190 *  2.1394317 *  2.0504779 *  2.4641594 *
   3 N       3.2451528    3.1992740    1.0362763 *  1.4573872 *
   4 CL      3.0417197    3.0229164    3.6064985    2.9371019 *
   5 H       1.7868302 *  1.7844348 *  2.3900800 *  4.1043406  
   6 H       0.0000000    1.7733872 *  3.4476767    4.4636818  
   7 H       1.7733872 *  0.0000000    3.4523935    4.4742260  
   8 H       3.4476767    3.4523935    0.0000000    2.1588015 *
   9 H       4.4636818    4.4742260    2.1588015 *  0.0000000  

  * ... LESS THAN  3.000

 ...... END OF ONE-ELECTRON INTEGRALS ......
 STEP CPU TIME =     0.02 TOTAL CPU TIME =          1.8 (      0.0 MIN)
 TOTAL WALL CLOCK TIME=          1.8 SECONDS, CPU UTILIZATION IS    98.88%
 TOTAL NUMBER OF NONZERO TWO-ELECTRON INTEGRALS =               86454
          6 INTEGRAL RECORDS WERE STORED ON DISK FILE  8.
  ...... END OF TWO-ELECTRON INTEGRALS .....
 STEP CPU TIME =     0.02 TOTAL CPU TIME =          1.8 (      0.0 MIN)
 TOTAL WALL CLOCK TIME=          1.8 SECONDS, CPU UTILIZATION IS    98.34%

          --------------------------
                 RHF SCF CALCULATION
          --------------------------
     DENSITY MATRIX CONV=  1.00E-05

 ITER EX DEM     TOTAL ENERGY        E CHANGE  DENSITY CHANGE     ORB. GRAD
          ---------------START SECOND ORDER SCF---------------
   1  0  0     -585.5819253944  -585.5819253944   0.057419352   0.017677827
   2  1  0     -585.5882923040    -0.0063669096   0.041464363   0.006810679
   3  2  0     -585.5895420371    -0.0012497331   0.006612012   0.001239195
   4  3  0     -585.5895733543    -0.0000313171   0.006039018   0.000712220
   5  4  0     -585.5895875050    -0.0000141508   0.001670599   0.000270347
   6  5  0     -585.5895897576    -0.0000022526   0.002062512   0.000167614
   7  6  0     -585.5895912941    -0.0000015365   0.000667875   0.000108103
   8  7  0     -585.5895915413    -0.0000002472   0.000593474   0.000064664
   9  8  0     -585.5895916304    -0.0000000891   0.000203571   0.000028682
  10  9  0     -585.5895916436    -0.0000000133   0.000076912   0.000013270
  11 10  0     -585.5895916463    -0.0000000026   0.000019098   0.000003991
  12 11  0     -585.5895916465    -0.0000000002   0.000003595   0.000000606
  13 12  0     -585.5895916465    -0.0000000000   0.000000458   0.000000134

          -----------------
          DENSITY CONVERGED
          -----------------
     TIME TO FORM FOCK OPERATORS=       0.0 SECONDS (       0.0 SEC/ITER)
     TIME TO SOLVE SCF EQUATIONS=       0.0 SECONDS (       0.0 SEC/ITER)

 FINAL RHF ENERGY IS     -585.5895916465 AFTER  13 ITERATIONS
 ...... END OF RHF CALCULATION ......
 STEP CPU TIME =     0.05 TOTAL CPU TIME =          1.8 (      0.0 MIN)
 TOTAL WALL CLOCK TIME=          1.9 SECONDS, CPU UTILIZATION IS    98.39%
 ..... END OF 1-ELECTRON GRADIENT ......
 STEP CPU TIME =     0.01 TOTAL CPU TIME =          1.8 (      0.0 MIN)
 TOTAL WALL CLOCK TIME=          1.9 SECONDS, CPU UTILIZATION IS    98.40%
 ...... END OF 2-ELECTRON GRADIENT ......
 STEP CPU TIME =     0.03 TOTAL CPU TIME =          1.9 (      0.0 MIN)
 TOTAL WALL CLOCK TIME=          1.9 SECONDS, CPU UTILIZATION IS    97.91%

          NSERCH=  1     ENERGY=    -585.5895916

                                 -----------------------
                                 GRADIENT (HARTREE/BOHR)
                                 -----------------------
        ATOM     ZNUC       DE/DX         DE/DY         DE/DZ
 --------------------------------------------------------------
    1  C            6.0    -0.0473178    -0.0005670     0.0068534
    2  C            6.0     0.0896106    -0.0212660     0.1041146
    3  N            7.0    -0.2022554     0.0318135    -0.1731547
    4  CL          17.0    -0.0186436    -0.0349252     0.0133134
    5  H            1.0     0.0005890    -0.0033810     0.0050434
    6  H            1.0     0.0280412    -0.0025876     0.0039267
    7  H            1.0     0.0186333     0.0013476     0.0010191
    8  H            1.0    -0.0177487     0.0119457     0.0178264
    9  H            1.0     0.1490915     0.0176200     0.0210577

          MAXIMUM GRADIENT = 0.2022554    RMS GRADIENT = 0.0667245

 NSERCH:   1  E=     -585.5895916465  GRAD. MAX=  0.2022554  R.M.S.=  0.0667245

          HESSIAN UPDATED USING THE POWELL FORMULA
 LOCAL CURVATURE   2 OF THE APPROXIMATE HESSIAN HAS EIGENVALUE=   -0.301240
 *** THIS MODE HAS AN INCORRECT CURVATURE ***
 THE COMPONENTS OF THIS MODE FOLLOWS:
       -0.028889      -0.060714      -0.106292      -0.038982       0.570594
        0.585951      -0.175030      -0.185849      -0.207058      -0.030626
       -0.103214      -0.053475       0.003639      -0.004394      -0.024545
       -0.008962      -0.085619      -0.079413      -0.009291      -0.054952
       -0.091215      -0.061067       0.055314       0.086106       0.349210
       -0.131165      -0.110058
 LOCAL CURVATURE   3 OF THE APPROXIMATE HESSIAN HAS EIGENVALUE=   -0.123728
 *** THIS MODE HAS AN INCORRECT CURVATURE ***
 THE COMPONENTS OF THIS MODE FOLLOWS:
        0.021007       0.045191       0.068565       0.036979       0.224616
        0.214060       0.116745       0.323424       0.359903      -0.011326
       -0.319006      -0.297070       0.008936      -0.008531       0.005609
        0.104675       0.020387       0.030091      -0.083474       0.014480
        0.032610      -0.062906      -0.420808      -0.469943      -0.130636
        0.120246       0.056176
 LOCAL CURVATURE   4 OF THE APPROXIMATE HESSIAN HAS EIGENVALUE=   -0.006692
 *** THIS MODE HAS AN INCORRECT CURVATURE ***
 THE COMPONENTS OF THIS MODE FOLLOWS:
       -0.015327       0.010950      -0.000701      -0.020088      -0.041864
       -0.053547      -0.035469       0.001746      -0.000297      -0.022765
       -0.308835      -0.308966      -0.013548      -0.316158      -0.315258
        0.072120       0.468730      -0.126910      -0.090958      -0.095190
        0.457463      -0.006972       0.212608       0.231807       0.133009
        0.068014       0.116410
             ACTUAL ENERGY CHANGE WAS  -0.0566776797
          PREDICTED ENERGY CHANGE WAS  -0.0585845828 RATIO=  0.967
          OVERLAP OF CURRENT MODE   1 WITH PREVIOUS MODE IS     0.996833
          FOLLOWING MODE  1 WITH EIGENVALUE   -2.53174 AND COMPONENTS
             -0.07632 -0.05155 -0.08998  0.08963 -0.31364  0.03011
             -0.47043  0.52501  0.18929 -0.01871  0.07021  0.08407
              0.00399  0.00329  0.00199 -0.01484  0.01185 -0.00318
              0.06356 -0.01335  0.01363 -0.07206 -0.02519 -0.05414
              0.49520 -0.20663 -0.17179
          TRIM/QA LAMBDA FOR     TS MODE  =   1.02132093
          TRIM/QA LAMBDA FOR NON-TS MODES =  -1.02132093
          TRIM/QA STEP HAS LENGTH         =   0.300000
          RADIUS OF STEP TAKEN=   0.30000  CURRENT TRUST RADIUS=   0.30000

 BEGINNING GEOMETRY SEARCH POINT NSERCH=   2 ...

 COORDINATES OF ALL ATOMS ARE (ANGS)
   ATOM   CHARGE       X              Y              Z
 ------------------------------------------------------------
 C           6.0   1.0779044373   0.0302734327  -0.0443968514
 C           6.0   2.5508833024  -0.1497928616  -0.0394296340
 N           7.0   3.2787954348  -0.7796299914   1.0169757572
 CL         17.0   3.5528848709   0.9752576302  -0.9880721429
 H           1.0   0.5926392002  -0.6457451107   0.6691944457
 H           1.0   0.7248008199  -0.2042550136  -1.0535320639
 H           1.0   0.7602370828   1.0591678851   0.1872757189
 H           1.0   2.6721536974  -1.5245259812   1.4715370305
 H           1.0   4.6248986744  -1.0136126395   0.8774118700

          INTERNUCLEAR DISTANCES (ANGS.)
          ------------------------------

                1 C          2 C          3 N          4 CL         5 H     

   1 C       0.0000000    1.4839526 *  2.5741749 *  2.8123027 *  1.0962189 *
   2 C       1.4839526 *  0.0000000    1.4291757 *  1.7803562 *  2.1407561 *
   3 N       2.5741749 *  1.4291757 *  0.0000000    2.6786139 *  2.7118835 *
   4 CL      2.8123027 *  1.7803562 *  2.6786139 *  0.0000000    3.7599517  
   5 H       1.0962189 *  2.1407561 *  2.7118835 *  3.7599517    0.0000000  
   6 H       1.0945500 *  2.0894849 *  3.3378058    3.0648971    1.7833022 *
   7 H       1.1014575 *  2.1724169 *  3.2268740    3.0310667    1.7796244 *
   8 H       2.6938982 *  2.0463670 *  1.0627842 *  3.6158378    2.3959111 *
   9 H       3.8105902    2.4265866 *  1.3733972 *  2.9299913 *  4.0543554  

                6 H          7 H          8 H          9 H     

   1 C       1.0945500 *  1.1014575 *  2.6938982 *  3.8105902  
   2 C       2.0894849 *  2.1724169 *  2.0463670 *  2.4265866 *
   3 N       3.3378058    3.2268740    1.0627842 *  1.3733972 *
   4 CL      3.0648971    3.0310667    3.6158378    2.9299913 *
   5 H       1.7833022 *  1.7796244 *  2.3959111 *  4.0543554  
   6 H       0.0000000    1.7711852 *  3.4512712    4.4265526  
   7 H       1.7711852 *  0.0000000    3.4612463    4.4394049  
   8 H       3.4512712    3.4612463    0.0000000    2.1040984 *
   9 H       4.4265526    4.4394049    2.1040984 *  0.0000000  

  * ... LESS THAN  3.000

 ...... END OF ONE-ELECTRON INTEGRALS ......
 STEP CPU TIME =     0.00 TOTAL CPU TIME =          1.9 (      0.0 MIN)
 TOTAL WALL CLOCK TIME=          1.9 SECONDS, CPU UTILIZATION IS    97.91%
 TOTAL NUMBER OF NONZERO TWO-ELECTRON INTEGRALS =               86262
          6 INTEGRAL RECORDS WERE STORED ON DISK FILE  8.
  ...... END OF TWO-ELECTRON INTEGRALS .....
 STEP CPU TIME =     0.03 TOTAL CPU TIME =          1.9 (      0.0 MIN)
 TOTAL WALL CLOCK TIME=          1.9 SECONDS, CPU UTILIZATION IS    97.94%

          --------------------------
                 RHF SCF CALCULATION
          --------------------------
     DENSITY MATRIX CONV=  1.00E-05

 ITER EX DEM     TOTAL ENERGY        E CHANGE  DENSITY CHANGE     ORB. GRAD
          ---------------START SECOND ORDER SCF---------------
   1  0  0     -585.6445115111  -585.6445115111   0.091512109   0.023814932
   2  1  0     -585.6582598250    -0.0137483139   0.060970741   0.008073380
   3  2  0     -585.6610221306    -0.0027623056   0.005195783   0.001961747
   4  3  0     -585.6610663721    -0.0000442414   0.004159033   0.000994133
   5  4  0     -585.6610766885    -0.0000103164   0.001419523   0.000185238
   6  5  0     -585.6610776131    -0.0000009246   0.000950038   0.000097690
   7  6  0     -585.6610778514    -0.0000002382   0.000246817   0.000029058
   8  7  0     -585.6610778825    -0.0000000312   0.000089348   0.000013697
   9  8  0     -585.6610778894    -0.0000000068   0.000020667   0.000003123
  10  9  0     -585.6610778898    -0.0000000005   0.000006365   0.000001173
  11 10  0     -585.6610778899    -0.0000000001   0.000003141   0.000000535

          -----------------
          DENSITY CONVERGED
          -----------------
     TIME TO FORM FOCK OPERATORS=       0.0 SECONDS (       0.0 SEC/ITER)
     TIME TO SOLVE SCF EQUATIONS=       0.0 SECONDS (       0.0 SEC/ITER)

 FINAL RHF ENERGY IS     -585.6610778899 AFTER  11 ITERATIONS
 ...... END OF RHF CALCULATION ......
 STEP CPU TIME =     0.04 TOTAL CPU TIME =          1.9 (      0.0 MIN)
 TOTAL WALL CLOCK TIME=          2.0 SECONDS, CPU UTILIZATION IS    97.98%
 ..... END OF 1-ELECTRON GRADIENT ......
 STEP CPU TIME =     0.00 TOTAL CPU TIME =          1.9 (      0.0 MIN)
 TOTAL WALL CLOCK TIME=          2.0 SECONDS, CPU UTILIZATION IS    97.49%
 ...... END OF 2-ELECTRON GRADIENT ......
 STEP CPU TIME =     0.04 TOTAL CPU TIME =          2.0 (      0.0 MIN)
 TOTAL WALL CLOCK TIME=          2.0 SECONDS, CPU UTILIZATION IS    97.54%

          NSERCH=  2     ENERGY=    -585.6610779

                                 -----------------------
                                 GRADIENT (HARTREE/BOHR)
                                 -----------------------
        ATOM     ZNUC       DE/DX         DE/DY         DE/DZ
 --------------------------------------------------------------
    1  C            6.0    -0.0234703    -0.0081138    -0.0019138
    2  C            6.0     0.0139163     0.0471949     0.0720446
    3  N            7.0    -0.1301244    -0.0146301    -0.1128903
    4  CL          17.0    -0.0118626    -0.0315133     0.0066534
    5  H            1.0    -0.0014982    -0.0038276     0.0057006
    6  H            1.0     0.0218259    -0.0046857    -0.0013825
    7  H            1.0     0.0145443     0.0018332    -0.0010087
    8  H            1.0    -0.0341767     0.0065516     0.0244935
    9  H            1.0     0.1508457     0.0071909     0.0083031

          MAXIMUM GRADIENT = 0.1508457    RMS GRADIENT = 0.0489717

 NSERCH:   2  E=     -585.6610778899  GRAD. MAX=  0.1508457  R.M.S.=  0.0489717

          HESSIAN UPDATED USING THE POWELL FORMULA
 LOCAL CURVATURE   2 OF THE APPROXIMATE HESSIAN HAS EIGENVALUE=   -0.210631
 *** THIS MODE HAS AN INCORRECT CURVATURE ***
 THE COMPONENTS OF THIS MODE FOLLOWS:
       -0.008351      -0.035647      -0.057754      -0.044628       0.617015
        0.626189      -0.009270       0.014508       0.008875      -0.034618
       -0.235067      -0.160020      -0.002089      -0.006385      -0.024216
        0.035673      -0.073002      -0.068134      -0.058586      -0.042257
       -0.085665      -0.092485      -0.144748      -0.137639       0.214355
       -0.094417      -0.101636
 LOCAL CURVATURE   3 OF THE APPROXIMATE HESSIAN HAS EIGENVALUE=   -0.070957
 *** THIS MODE HAS AN INCORRECT CURVATURE ***
 THE COMPONENTS OF THIS MODE FOLLOWS:
       -0.018823      -0.087791      -0.121015      -0.066079       0.070265
        0.158123       0.011159      -0.233591      -0.278853      -0.024003
        0.286895       0.317261      -0.040416       0.025280      -0.028160
       -0.101673      -0.106014      -0.091318       0.056403      -0.048506
       -0.159541       0.091494       0.420121       0.449814       0.091939
       -0.326658      -0.246310
 LOCAL CURVATURE   4 OF THE APPROXIMATE HESSIAN HAS EIGENVALUE=   -0.005403
 *** THIS MODE HAS AN INCORRECT CURVATURE ***
 THE COMPONENTS OF THIS MODE FOLLOWS:
       -0.025580      -0.007418      -0.015207      -0.043827      -0.035013
        0.016510       0.026345       0.007744       0.000839      -0.063205
       -0.279687      -0.252209      -0.076772      -0.312287      -0.344806
        0.095831       0.468667      -0.160418      -0.079279      -0.099375
        0.417519       0.053675       0.271565       0.301356       0.112813
       -0.014195       0.036416
             ACTUAL ENERGY CHANGE WAS  -0.0714862434
          PREDICTED ENERGY CHANGE WAS  -0.0808982126 RATIO=  0.884
          OVERLAP OF CURRENT MODE   1 WITH PREVIOUS MODE IS     0.997867
          FOLLOWING MODE  1 WITH EIGENVALUE   -2.49209 AND COMPONENTS
             -0.08027 -0.04820 -0.08796  0.09070 -0.29232  0.05063
             -0.49293  0.49697  0.15667 -0.01983  0.06194  0.08147
              0.00382  0.00795  0.00744 -0.01595  0.01825  0.00123
              0.07082 -0.00819  0.02008 -0.07510 -0.02209 -0.05079
              0.51873 -0.21430 -0.17876
          TRIM/QA LAMBDA FOR     TS MODE  =   0.79207737
          TRIM/QA LAMBDA FOR NON-TS MODES =  -0.79207737
          TRIM/QA STEP HAS LENGTH         =   0.300000
          RADIUS OF STEP TAKEN=   0.30000  CURRENT TRUST RADIUS=   0.30000

 BEGINNING GEOMETRY SEARCH POINT NSERCH=   3 ...

 COORDINATES OF ALL ATOMS ARE (ANGS)
   ATOM   CHARGE       X              Y              Z
 ------------------------------------------------------------
 C           6.0   1.0833511078   0.0337187638  -0.0439585259
 C           6.0   2.5653117799  -0.2271129246  -0.0936474816
 N           7.0   3.3107256957  -0.7221820654   1.0872205436
 CL         17.0   3.5571501146   1.0023370701  -0.9806250613
 H           1.0   0.5941643082  -0.6424569295   0.6667987731
 H           1.0   0.7123629600  -0.1972079059  -1.0489374978
 H           1.0   0.7592972564   1.0591580612   0.1924651564
 H           1.0   2.6944509286  -1.5297396635   1.4532006559
 H           1.0   4.5583833689  -1.0293770562   0.8644475676

          INTERNUCLEAR DISTANCES (ANGS.)
          ------------------------------

                1 C          2 C          3 N          4 CL         5 H     

   1 C       0.0000000    1.5055596 *  2.6100095 *  2.8169571 *  1.0962177 *
   2 C       1.5055596 *  0.0000000    1.4816156 *  1.8116346 *  2.1531864 *
   3 N       2.6100095 *  1.4816156 *  0.0000000    2.7038263 *  2.7500575 *
   4 CL      2.8169571 *  1.8116346 *  2.7038263 *  0.0000000    3.7681079  
   5 H       1.0962177 *  2.1531864 *  2.7500575 *  3.7681079    0.0000000  
   6 H       1.0958750 *  2.0849203 *  3.4044468    3.0881044    1.7765046 *
   7 H       1.1011053 *  2.2356301 *  3.2378306    3.0343615    1.7741913 *
   8 H       2.6984311 *  2.0263890 *  1.0797617 *  3.6165135    2.4118255 *
   9 H       3.7458275    2.3524260 *  1.3040883 *  2.9214078 *  3.9879575  

                6 H          7 H          8 H          9 H     

   1 C       1.0958750 *  1.1011053 *  2.6984311 *  3.7458275  
   2 C       2.0849203 *  2.2356301 *  2.0263890 *  2.3524260 *
   3 N       3.4044468    3.2378306    1.0797617 *  1.3040883 *
   4 CL      3.0881044    3.0343615    3.6165135    2.9214078 *
   5 H       1.7765046 *  1.7741913 *  2.4118255 *  3.9879575  
   6 H       0.0000000    1.7668443 *  3.4590474    4.3755481  
   7 H       1.7668443 *  0.0000000    3.4693897    4.3870941  
   8 H       3.4590474    3.4693897    0.0000000    2.0177307 *
   9 H       4.3755481    4.3870941    2.0177307 *  0.0000000  

  * ... LESS THAN  3.000

 ...... END OF ONE-ELECTRON INTEGRALS ......
 STEP CPU TIME =     0.01 TOTAL CPU TIME =          2.0 (      0.0 MIN)
 TOTAL WALL CLOCK TIME=          2.0 SECONDS, CPU UTILIZATION IS    98.03%
 TOTAL NUMBER OF NONZERO TWO-ELECTRON INTEGRALS =               86051
          6 INTEGRAL RECORDS WERE STORED ON DISK FILE  8.
  ...... END OF TWO-ELECTRON INTEGRALS .....
 STEP CPU TIME =     0.02 TOTAL CPU TIME =          2.0 (      0.0 MIN)
 TOTAL WALL CLOCK TIME=          2.1 SECONDS, CPU UTILIZATION IS    97.57%

          --------------------------
                 RHF SCF CALCULATION
          --------------------------
     DENSITY MATRIX CONV=  1.00E-05

 ITER EX DEM     TOTAL ENERGY        E CHANGE  DENSITY CHANGE     ORB. GRAD
          ---------------START SECOND ORDER SCF---------------
   1  0  0     -585.7045986842  -585.7045986842   0.097283416   0.019830105
   2  1  0     -585.7172956215    -0.0126969373   0.086787551   0.008258320
   3  2  0     -585.7199881656    -0.0026925441   0.008167253   0.001536157
   4  3  0     -585.7200262519    -0.0000380863   0.003202775   0.000794850
   5  4  0     -585.7200334657    -0.0000072138   0.000528742   0.000120789
   6  5  0     -585.7200337697    -0.0000003040   0.000188617   0.000049446
   7  6  0     -585.7200338100    -0.0000000403   0.000112052   0.000018474
   8  7  0     -585.7200338155    -0.0000000055   0.000067590   0.000006878
   9  8  0     -585.7200338168    -0.0000000013   0.000016649   0.000001704
  10  9  0     -585.7200338169    -0.0000000001   0.000003128   0.000000579
  11 10  0     -585.7200338169    -0.0000000000   0.000000504   0.000000146

          -----------------
          DENSITY CONVERGED
          -----------------
     TIME TO FORM FOCK OPERATORS=       0.0 SECONDS (       0.0 SEC/ITER)
     TIME TO SOLVE SCF EQUATIONS=       0.0 SECONDS (       0.0 SEC/ITER)

 FINAL RHF ENERGY IS     -585.7200338169 AFTER  11 ITERATIONS
 ...... END OF RHF CALCULATION ......
 STEP CPU TIME =     0.05 TOTAL CPU TIME =          2.1 (      0.0 MIN)
 TOTAL WALL CLOCK TIME=          2.1 SECONDS, CPU UTILIZATION IS    98.10%
 ..... END OF 1-ELECTRON GRADIENT ......
 STEP CPU TIME =     0.01 TOTAL CPU TIME =          2.1 (      0.0 MIN)
 TOTAL WALL CLOCK TIME=          2.1 SECONDS, CPU UTILIZATION IS    98.10%
 ...... END OF 2-ELECTRON GRADIENT ......
 STEP CPU TIME =     0.03 TOTAL CPU TIME =          2.1 (      0.0 MIN)
 TOTAL WALL CLOCK TIME=          2.1 SECONDS, CPU UTILIZATION IS    98.13%

          NSERCH=  3     ENERGY=    -585.7200338

                                 -----------------------
                                 GRADIENT (HARTREE/BOHR)
                                 -----------------------
        ATOM     ZNUC       DE/DX         DE/DY         DE/DZ
 --------------------------------------------------------------
    1  C            6.0    -0.0162385    -0.0105423    -0.0069468
    2  C            6.0    -0.0120377     0.0695269     0.0556878
    3  N            7.0    -0.0853861    -0.0114050    -0.0595288
    4  CL          17.0    -0.0069859    -0.0293508     0.0006932
    5  H            1.0    -0.0018785    -0.0036256     0.0051279
    6  H            1.0     0.0150077    -0.0058207    -0.0053201
    7  H            1.0     0.0072061     0.0017944    -0.0028741
    8  H            1.0    -0.0429950    -0.0050216     0.0193827
    9  H            1.0     0.1433079    -0.0055553    -0.0062219

          MAXIMUM GRADIENT = 0.1433079    RMS GRADIENT = 0.0401978

 NSERCH:   3  E=     -585.7200338169  GRAD. MAX=  0.1433079  R.M.S.=  0.0401978

          HESSIAN UPDATED USING THE POWELL FORMULA
 LOCAL CURVATURE   2 OF THE APPROXIMATE HESSIAN HAS EIGENVALUE=   -0.174644
 *** THIS MODE HAS AN INCORRECT CURVATURE ***
 THE COMPONENTS OF THIS MODE FOLLOWS:
        0.000839      -0.012897      -0.021844      -0.012778       0.586894
        0.560627       0.056866       0.117132       0.142710      -0.020938
[...]
                   Z -0.04097641  5.06374359  4.71128215 14.97367037  0.01595569
               TOTAL  0.14869833 15.86024858 21.48203289 15.96380975  0.01617836

                            6           7           8           9          10
       FREQUENCY:         0.02        0.62      262.02      379.31      397.01  
        SYMMETRY:         A           A           A           A           A   
    REDUCED MASS:      8.60993     4.85478     1.16709     3.49213     4.35834
    IR INTENSITY:      0.00000     0.00414     1.06009     0.33764     0.04639

  1   C            X -0.03563068 -0.04822161 -0.04006292 -0.09652589 -0.01186590
                   Y  0.10309587  0.11290450  0.00862279 -0.12405059  0.04480993
                   Z -0.03306446  0.09016746 -0.00523116  0.05508688 -0.05488415
  2   C            X -0.03564411 -0.07078799 -0.03938354 -0.06437806 -0.01873213
                   Y  0.10262319  0.02067779  0.01196691  0.02576339 -0.00454920
                   Z -0.03244878  0.09284866 -0.02323944 -0.03185129 -0.03148250
  3   N            X -0.03634747 -0.08371773 -0.00980562 -0.02023604  0.11243259
                   Y  0.10233586  0.02110273  0.04311679  0.07920213  0.11213528
                   Z -0.03225587  0.09774068 -0.01339272 -0.05749993 -0.06349149
  4   CL           X -0.03495928  0.02734907  0.01471413  0.07753992 -0.03345764
                   Y  0.10237074 -0.03382922 -0.03485218  0.01372186 -0.06835023
                   Z -0.03193920  0.05358975  0.02224245  0.00782645  0.05951947
  5   H            X -0.03614262 -0.06044727  0.00304099 -0.00812045 -0.05637829
                   Y  0.10313201  0.15312122  0.03410129 -0.20247056  0.06759068
                   Z -0.03322852  0.09719731  0.01618502  0.06304257 -0.06275566
  6   H            X -0.03550328 -0.08090920 -0.05458968 -0.06873401 -0.01425220
                   Y  0.10335609  0.13486007 -0.02137520 -0.18091424  0.06416058
                   Z -0.03337635  0.10352650  0.03029638  0.07256363 -0.06764795
  7   H            X -0.03523758  0.01167313 -0.05480883 -0.23126740  0.02945390
                   Y  0.10317482  0.12275803  0.00333530 -0.14386137  0.05152900
                   Z -0.03307857  0.06879222 -0.03282469  0.10490618 -0.07161862
  8   H            X -0.03672600 -0.13136462  0.49433078 -0.11976066 -0.02245261
                   Y  0.10246328  0.05052629 -0.28832914  0.16942954  0.25355082
                   Z -0.03253491  0.11660169 -0.26742937  0.08834100  0.22110646
  9   H            X -0.03638666 -0.10099624  0.18367959 -0.06552650  0.02667398
                   Y  0.10203977 -0.03417773  0.63729388 -0.04846915 -0.10268018
                   Z -0.03186738  0.10118412  0.00701484 -0.07815136 -0.17370292

 TRANS. SAYVETZ    X -2.76816422 -2.00893212 -0.00000420 -0.00000208  0.00000551
                   Y  7.99962114  1.14595149 -0.00001424 -0.00000059  0.00000353
                   Z -2.52008689  5.92994984 -0.00008224 -0.00000252  0.00002315
               TOTAL  8.83218600  6.36500732  0.00008357  0.00000332  0.00002406

   ROT. SAYVETZ    X  0.03499637 -4.76362878  0.06723429 -0.01299912 -0.01618660
                   Y -0.10974638 -2.30074961 -0.01771672  0.00111686  0.01594139
                   Z -0.11150769-14.36789737  0.14887213 -0.02744942 -0.02083365
               TOTAL  0.16032148 15.31084853  0.16430838  0.03039235  0.03082491

                           11          12          13          14          15
       FREQUENCY:       526.73      660.96      994.88     1096.49     1184.00  
        SYMMETRY:         A           A           A           A           A   
    REDUCED MASS:      3.14780     3.66986     2.97712     1.98231     1.35044
    IR INTENSITY:      0.10972     2.17822     0.47248     0.75217     0.87859

  1   C            X -0.11414384  0.02641138  0.12635396  0.08750890 -0.02447328
                   Y  0.00714161 -0.00185209 -0.04649402  0.01968283 -0.09879830
                   Z -0.06098512  0.00269322  0.02240125 -0.07919925 -0.04188612
  2   C            X -0.06116456  0.05820531 -0.10027305 -0.14633430 -0.01509788
                   Y  0.03583427  0.22161688  0.00564635  0.01147845  0.06329902
                   Z  0.11481799  0.02035692  0.13586090 -0.03182369 -0.00964400
  3   N            X  0.10991911 -0.01109544 -0.04932031  0.01317365  0.02164637
                   Y -0.07139193 -0.00911548  0.02978221 -0.02033977  0.02547820
                   Z  0.04667848  0.00602312 -0.08758990  0.07664770  0.06667291
  4   CL           X  0.02195361 -0.01988831  0.00099177  0.00327299  0.00255475
                   Y  0.02002515 -0.05918771  0.00102129  0.00748087 -0.00365936
                   Z -0.01992129 -0.00330603 -0.00095682  0.00022566  0.00023814
  5   H            X -0.31019465  0.07639348 -0.12150675  0.51131064  0.09898384
                   Y  0.01353504 -0.12535697  0.03136906 -0.16180903  0.15060804
                   Z -0.12222401 -0.01453876 -0.04045254  0.00398718  0.06666204
  6   H            X  0.05444034  0.15443674  0.26714702 -0.01475473 -0.43827798
                   Y -0.04228687 -0.14347023 -0.02040978 -0.10219092  0.22740041
                   Z -0.17977278 -0.01037666 -0.12085093  0.10661390  0.08818035
  7   H            X -0.14296180 -0.26064523  0.27055302 -0.17664386  0.51947406
                   Y -0.00641963 -0.05102236 -0.04104666 -0.01263112  0.01071823
                   Z -0.14792349  0.03670868 -0.11125757  0.11294935  0.02552655
  8   H            X  0.12739800 -0.09696145 -0.00609707  0.11061739 -0.04328980
                   Y -0.08623031 -0.02489497  0.00683525 -0.04385561 -0.05049882
                   Z  0.03314046 -0.23761060 -0.10112219  0.22647276 -0.30475879
  9   H            X  0.06970250 -0.03650365 -0.06977400 -0.02670712 -0.05512928
                   Y -0.09318483 -0.09165262  0.06037873 -0.02750391 -0.14257616
                   Z -0.18154217 -0.01761247 -0.26051435 -0.20088434 -0.19668850

 TRANS. SAYVETZ    X  0.00000354  0.00000102  0.00000140  0.00000172 -0.00000103
                   Y -0.00000475 -0.00000528  0.00000082  0.00000006  0.00000074
                   Z  0.00000820  0.00000102 -0.00000084  0.00000749  0.00000069
               TOTAL  0.00001011  0.00000548  0.00000183  0.00000768  0.00000144

   ROT. SAYVETZ    X  0.00346163  0.00341310  0.00118922 -0.00108626  0.00205943
                   Y  0.01406695 -0.00321695  0.00416633 -0.00059775 -0.00213693
                   Z -0.00317569 -0.01000957  0.00176024 -0.00156361  0.00387120
               TOTAL  0.01483061  0.01105393  0.00467664  0.00199553  0.00487790

                           16          17          18          19          20
       FREQUENCY:      1239.87     1311.26     1460.31     1721.99     1873.10  
        SYMMETRY:         A           A           A           A           A   
    REDUCED MASS:      1.64426     1.99085     1.29953     1.23954     1.05254
    IR INTENSITY:      0.77950     1.70656     0.56041     0.14862     0.03824

  1   C            X  0.02773688 -0.03102222  0.00623868 -0.12196474 -0.02392180
                   Y -0.05376900 -0.01432718  0.00662705  0.03531694 -0.03691603
                   Z  0.03837833 -0.07140316 -0.03566067  0.02057060 -0.04312561
  2   C            X -0.07122720  0.06129336 -0.09715346  0.02006746 -0.00173877
                   Y  0.11031929  0.03958564 -0.01792653  0.00130071 -0.00405373
                   Z -0.09235876  0.13359734  0.04384803  0.00211753 -0.00693604
  3   N            X  0.01174950 -0.02737839  0.06927158 -0.00486609 -0.00010719
                   Y -0.05796720 -0.04348883  0.00954127 -0.00018475  0.00042780
                   Z  0.00814648 -0.10193585 -0.03648156 -0.00306532  0.00125597
  4   CL           X  0.00040373 -0.00132047  0.00170110 -0.00122849 -0.00010154
                   Y -0.00488937 -0.00235278  0.00118969 -0.00159969 -0.00006177
                   Z -0.00235027 -0.00414852  0.00228017 -0.00014884  0.00008790
  5   H            X -0.22671093  0.27642089  0.15942903  0.44963184  0.03867684
                   Y  0.08804976  0.01667605 -0.04338872 -0.23859982  0.61710611
                   Z -0.00805969  0.04114411 -0.00287604  0.11489528  0.16437841
  6   H            X  0.08659192 -0.34352670 -0.01910982  0.38379530  0.29216421
                   Y  0.06637710  0.07591576 -0.02912520 -0.24643724 -0.16789375
                   Z -0.10317134  0.13894648  0.01473569 -0.19826919 -0.20168510
  7   H            X  0.29947842  0.03257204 -0.00278743  0.48513149 -0.02397782
                   Y -0.02254370  0.02372976  0.00953000  0.11971088  0.04180638
                   Z -0.11173437  0.12793413  0.02510286 -0.13632526  0.61666981
  8   H            X  0.07134810  0.04760709 -0.22788633  0.01580761  0.00432365
                   Y  0.04297071  0.07492801  0.08308346 -0.00474390 -0.00347269
                   Z  0.47315744  0.39933886 -0.39762063  0.02504748 -0.00035643
  9   H            X  0.10986462  0.05271539  0.15135338 -0.01085632 -0.00063804
                   Y  0.12687973  0.19388948 -0.05940845 -0.00785861 -0.00352719
                   Z  0.36089781  0.11237282  0.69094192 -0.02773658 -0.00343190

 TRANS. SAYVETZ    X  0.00000028  0.00000048 -0.00000098 -0.00000007  0.00000012
                   Y  0.00000359  0.00000297 -0.00000089 -0.00000065 -0.00000031
                   Z -0.00000407 -0.00000270 -0.00000236  0.00000033  0.00000019
               TOTAL  0.00000544  0.00000405  0.00000271  0.00000073  0.00000038

   ROT. SAYVETZ    X -0.00242745 -0.00294316  0.00030025  0.00007077 -0.00032750
                   Y  0.00192258 -0.00154165 -0.00457416  0.00066651  0.00044513
                   Z  0.00269027  0.00196780 -0.00161572  0.00018131 -0.00042924
               TOTAL  0.00410200  0.00386149  0.00486042  0.00069435  0.00069974

                           21          22          23          24          25
       FREQUENCY:      1886.61     2047.90     3502.95     3666.67     3710.12  
        SYMMETRY:         A           A           A           A           A   
    REDUCED MASS:      1.05611     1.08816     1.03871     1.10546     1.10592
    IR INTENSITY:      0.04064     0.04305     0.66149     0.87419     0.23192

  1   C            X -0.00998215  0.00024739  0.05172392 -0.01448627 -0.00690263
                   Y -0.04676062 -0.00060647  0.00013066 -0.02866635 -0.08410783
                   Z  0.04259954 -0.00228516 -0.00509635 -0.08367662  0.03076125
  2   C            X  0.00109702  0.00059697 -0.00168737 -0.00071431 -0.00058072
                   Y -0.00473195  0.00681309 -0.00038453  0.00039288  0.00014883
                   Z  0.00548448  0.01475688 -0.00053022  0.00032325  0.00013027
  3   N            X  0.00006722 -0.03215576 -0.00039178 -0.00067662  0.00048319
                   Y  0.00091119  0.05698622 -0.00000565  0.00019246  0.00056552
                   Z -0.00179088 -0.03418916  0.00040677  0.00031985 -0.00041412
  4   CL           X -0.00003022  0.00041113 -0.00004286 -0.00001243 -0.00007090
                   Y  0.00014493  0.00068873  0.00016450  0.00000120  0.00016891
                   Z  0.00003756 -0.00043202  0.00003315  0.00000837  0.00001702
  5   H            X  0.35997017 -0.00938923 -0.15972980 -0.18608083  0.12776278
                   Y  0.19662337  0.00106315 -0.14903559 -0.16992424  0.10833298
                   Z  0.21956168 -0.00490125  0.53635598  0.57309675 -0.40281713
  6   H            X  0.05586060 -0.01587273 -0.35847638  0.39933396  0.11181984
                   Y  0.54602797  0.00081471 -0.31581731  0.34063913  0.08671880
                   Z -0.46159456  0.01091591 -0.42218158  0.44614779  0.13108395
  7   H            X -0.30977790 -0.00177451 -0.07133338 -0.03309553 -0.14685403
                   Y -0.13719990  0.00117445  0.45857953  0.16695250  0.79892817
                   Z -0.31146349  0.00463226 -0.05231944 -0.03096023 -0.09292866
  8   H            X  0.00320989  0.60843408  0.00159846 -0.00099235 -0.00628626
                   Y -0.00068109 -0.29461283  0.00374851 -0.00041922 -0.00942388
                   Z -0.00020294  0.07023968 -0.00146564  0.00007093  0.00252425
  9   H            X -0.00335446 -0.15893287 -0.00090502  0.01165786 -0.00159301
                   Y -0.00934657 -0.59802457 -0.00008160 -0.00331639  0.00141132
                   Z  0.00475074  0.26064292 -0.00019667 -0.00061555 -0.00051925

 TRANS. SAYVETZ    X  0.00000015  0.00000006 -0.00000011 -0.00000001  0.00000006
                   Y -0.00000028 -0.00000052  0.00000012  0.00000004 -0.00000003
                   Z -0.00000011  0.00000232 -0.00000001 -0.00000008 -0.00000010
               TOTAL  0.00000034  0.00000238  0.00000016  0.00000009  0.00000012

   ROT. SAYVETZ    X -0.00021577 -0.00040422 -0.00002009 -0.00002812 -0.00003272
                   Y  0.00010789  0.00009899  0.00003536  0.00002362 -0.00003479
                   Z -0.00008876  0.00049316 -0.00002254  0.00001919 -0.00002035
               TOTAL  0.00025705  0.00064529  0.00004650  0.00004144  0.00005191

                           26          27
       FREQUENCY:      3778.43     3963.56  
        SYMMETRY:         A           A   
    REDUCED MASS:      1.05414     1.08791
    IR INTENSITY:      1.44559     1.41223

  1   C            X  0.00028011  0.00005899
                   Y  0.00083641 -0.00038695
                   Z  0.00023642  0.00083439
  2   C            X  0.00127211 -0.00065801
                   Y  0.00098620 -0.00062051
                   Z  0.00375450  0.00006613
  3   N            X -0.01969677 -0.06922498
                   Y  0.05371454 -0.02402215
                   Z -0.00962548  0.01714411
  4   CL           X -0.00001392  0.00011827
                   Y  0.00004934  0.00009119
                   Z -0.00014816  0.00006094
  5   H            X  0.00113366  0.00432960
                   Y -0.00072443  0.00286544
                   Z -0.00005985 -0.01030112
  6   H            X -0.00689833 -0.00122448
                   Y -0.00399978 -0.00099501
                   Z -0.00640815 -0.00212283
  7   H            X  0.00025498 -0.00119826
                   Y -0.00606019  0.00486146
                   Z  0.00095028 -0.00128072
  8   H            X -0.35996217  0.28694280
                   Y -0.60607799  0.54804807
                   Z  0.17944442 -0.13432988
  9   H            X  0.62114642  0.67601507
                   Y -0.15287983 -0.21217651
                   Z -0.08256465 -0.10300837

 TRANS. SAYVETZ    X -0.00000000 -0.00000005
                   Y -0.00000042  0.00000001
                   Z  0.00000064  0.00000000
               TOTAL  0.00000076  0.00000005

   ROT. SAYVETZ    X  0.00000972 -0.00003303
                   Y -0.00003309 -0.00003020
                   Z  0.00008703 -0.00003849
               TOTAL  0.00009362  0.00005903

 REFERENCE ON SAYVETZ CONDITIONS - A. SAYVETZ, J.CHEM.PHYS., 7, 383-389(1939).

 NOTE - THE MODES J,K ARE ORTHONORMALIZED ACCORDING TO
 SUM ON I   M(I) * (X(I,J)*X(I,K) + Y(I,J)*Y(I,K) + Z(I,J)*Z(I,K)) = DELTA(J,K)

  MODE FREQ(CM**-1)  SYMMETRY  RED. MASS  IR INTENS.
     1     271.319    A        1.032677    0.008253
     2      10.913    A        3.755672    0.002512
     3       5.585    A        4.678215    0.011160
     4       0.644    A        8.932214    0.004478
     5       0.029    A        8.667007    0.000000
     6       0.019    A        8.609933    0.000000
     7       0.625    A        4.854779    0.004143
     8     262.021    A        1.167094    1.060091
     9     379.311    A        3.492132    0.337641
    10     397.013    A        4.358345    0.046389
    11     526.731    A        3.147800    0.109718
    12     660.956    A        3.669856    2.178224
    13     994.884    A        2.977124    0.472480
    14    1096.488    A        1.982308    0.752168
    15    1184.004    A        1.350440    0.878586
    16    1239.866    A        1.644260    0.779496
    17    1311.256    A        1.990855    1.706558
    18    1460.309    A        1.299528    0.560407
    19    1721.989    A        1.239543    0.148624
    20    1873.102    A        1.052537    0.038241
    21    1886.606    A        1.056112    0.040635
    22    2047.901    A        1.088160    0.043048
    23    3502.947    A        1.038711    0.661487
    24    3666.667    A        1.105460    0.874192
    25    3710.118    A        1.105920    0.231920
    26    3778.433    A        1.054137    1.445590
    27    3963.560    A        1.087909    1.412229

     -------------------------------
     THERMOCHEMISTRY AT T=  298.15 K
     -------------------------------

 USING IDEAL GAS, RIGID ROTOR, HARMONIC NORMAL MODE APPROXIMATIONS.
 P=  1.01325E+05 PASCAL.
 ALL FREQUENCIES ARE SCALED BY   1.00000
 THE MOMENTS OF INERTIA ARE (IN AMU*BOHR**2)
            212.27936           413.45408           576.63447
 THE ROTATIONAL SYMMETRY NUMBER IS  1.0
 THE ROTATIONAL CONSTANTS ARE (IN GHZ)
      8.49394     4.36104     3.12692
   1 IMAGINARY FREQUENCY VIBRATION(S) IS(ARE) EXCLUDED
     FROM THE FOLLOWING THERMOCHEMICAL ANALYSIS.
      8 -     27 VIBRATIONAL MODES ARE USED IN THERMOCHEMISTRY.
 THE HARMONIC ZERO POINT ENERGY IS (SCALED BY   1.000)
        0.081249 HARTREE/MOLECULE    17832.080720 CM**-1/MOLECULE 
       50.984528 KCAL/MOL              213.319267 KJ/MOL

               Q               LN Q
 ELEC.     1.00000E+00       0.000000
 TRANS.    2.70824E+07      17.114396
 ROT.      8.05303E+04      11.296389
 VIB.      2.25290E+00       0.812218
 TOT.      4.91348E+12      29.223003

              E         H         G         CV        CP        S
           KJ/MOL    KJ/MOL    KJ/MOL   J/MOL-K   J/MOL-K   J/MOL-K
 ELEC.      0.000     0.000     0.000     0.000     0.000     0.000
 TRANS.     3.718     6.197   -42.426    12.472    20.786   163.082
 ROT.       3.718     3.718   -28.003    12.472    12.472   106.394
 VIB.     217.421   217.421   211.306    34.314    34.314    20.512
 TOTAL    224.858   227.337   140.877    59.257    67.572   289.988
 VIB. THERMAL CORRECTION E(T)-E(0) = H(T)-H(0) =      4102.130 J/MOL

              E         H         G         CV        CP        S
         KCAL/MOL  KCAL/MOL  KCAL/MOL CAL/MOL-K CAL/MOL-K CAL/MOL-K
 ELEC.      0.000     0.000     0.000     0.000     0.000     0.000
 TRANS.     0.889     1.481   -10.140     2.981     4.968    38.978
 ROT.       0.889     0.889    -6.693     2.981     2.981    25.429
 VIB.      51.965    51.965    50.503     8.201     8.201     4.902
 TOTAL     53.742    54.335    33.670    14.163    16.150    69.309
 VIB. THERMAL CORRECTION E(T)-E(0) = H(T)-H(0) =       980.433 CAL/MOL
 ......END OF NORMAL COORDINATE ANALYSIS......
 STEP CPU TIME =     0.00 TOTAL CPU TIME =         21.3 (      0.4 MIN)
 TOTAL WALL CLOCK TIME=         22.5 SECONDS, CPU UTILIZATION IS    94.62%
               580000  WORDS OF DYNAMIC MEMORY USED
 EXECUTION OF GAMESS TERMINATED NORMALLY Wed Dec 22 14:40:14 2021
 DDI: 263640 bytes (0.3 MB / 0 MWords) used by master data server.

 ----------------------------------------
 CPU timing information for all processes
 ========================================
 0: 19.467 + 1.845 = 21.313
 ----------------------------------------
 ddikick.x: exited gracefully.
----- accounting info -----
Files used on the master node chemcompute-node-5.novalocal were:
-rw-r--r--. 1 chemcomp chemcomp      900 Dec 22 14:39 /scratch/331174/369163.F05
-rw-rw-r--. 1 chemcomp chemcomp  1080096 Dec 22 14:40 /scratch/331174/369163.F08
-rw-rw-r--. 1 chemcomp chemcomp 70451200 Dec 22 14:40 /scratch/331174/369163.F10
-rw-rw-r--. 1 chemcomp chemcomp    94176 Dec 22 14:40 /scratch/331174/369163.F18
Wed Dec 22 14:40:17 UTC 2021
0.105u 0.080s 0:25.98 0.6%	0+0k 8+224io 0pf+0w
Finishing Up...
Looking for IR data...
Looking for Raman data...
vibramans not found
Looking for thermodynamics data...
Looking for UV-Vis data...
331174
