----- GAMESS execution script 'rungms' -----
This job is running on host chemcompute-node-0.novalocal
under operating system Linux at Wed Dec 22 15:06:59 UTC 2021
SLURM has assigned the following compute nodes to this run:
chemcompute-node-0
Available scratch disk space (Kbyte units) at beginning of the job is
Filesystem     1K-blocks     Used Available Use% Mounted on
/dev/sda1       62903276 16993456  45909820  28% /
GAMESS temporary binary files will be written to /scratch/331197
GAMESS supplementary output files will be written to /data/slurm/369186
Copying input file 369186.inp to your run's scratch directory...
The generated host list is
chemcompute-node-0.novalocal

 Distributed Data Interface kickoff program.
 Initiating 1 compute processes on 1 nodes to run the following command:
 /data/gamess-2019R1-ddi/gamess.00.x 369186 

          ******************************************************
          *         GAMESS VERSION = 30 JUN 2019 (R1)          *
          *             FROM IOWA STATE UNIVERSITY             *
          * M.W.SCHMIDT, K.K.BALDRIDGE, J.A.BOATZ, S.T.ELBERT, *
          *   M.S.GORDON, J.H.JENSEN, S.KOSEKI, N.MATSUNAGA,   *
          *          K.A.NGUYEN, S.J.SU, T.L.WINDUS,           *
          *       TOGETHER WITH M.DUPUIS, J.A.MONTGOMERY       *
          *         J.COMPUT.CHEM.  14, 1347-1363(1993)        *
          **************** 64 BIT LINUX VERSION ****************

  SINCE 1993, STUDENTS AND POSTDOCS WORKING AT IOWA STATE UNIVERSITY
  AND ALSO IN THEIR VARIOUS JOBS AFTER LEAVING ISU HAVE MADE IMPORTANT
  CONTRIBUTIONS TO THE CODE:
     IVANA ADAMOVIC, CHRISTINE AIKENS, YURI ALEXEEV, POOJA ARORA,
     ANDREY ASADCHEV, ROB BELL, PRADIPTA BANDYOPADHYAY, JONATHAN BENTZ,
     COLLEEN BERTONI, BRETT BODE, KURT BRORSEN, CALEB CARLIN, GALINA CHABAN,
     WEI CHEN, CHEOL HO CHOI, PAUL DAY, ALBERT DEFUSCO, NUWAN DESILVA,
     TIM DUDLEY, DMITRI FEDOROV, ALEX FINDLATER, GRAHAM FLETCHER, 
     MARK FREITAG, KURT GLAESEMANN, ANASTASIA GUNINA,
     DAN KEMP, GRANT MERRILL, NORIYUKI MINEZAWA, JONATHAN MULLIN,
     TAKESHI NAGATA, SEAN NEDD, HEATHER NETZLOFF, BOSILJKA NJEGIC, RYAN OLSON,
     MIKE PAK, BUU PHAM,
     SPENCER PRUITT, LUKE ROSKOP, JIM SHOEMAKER, LYUDMILA SLIPCHENKO,
     TONY SMITH, SAROM SOK LEANG, JIE SONG, TETSUYA TAKETSUGU, SIMON WEBB,
     PENG XU, SOOHAENG YOO, FEDERICO ZAHARIEV

  ADDITIONAL CODE HAS BEEN PROVIDED BY COLLABORATORS IN OTHER GROUPS:
     IOWA STATE UNIVERSITY:
          JOE IVANIC, AARON WEST, LAIMUTIS BYTAUTAS, KLAUS RUEDENBERG
     UNIVERSITY OF TOKYO: KIMIHIKO HIRAO, TAKAHITO NAKAJIMA,
          TAKAO TSUNEDA, MUNEAKI KAMIYA, SUSUMU YANAGISAWA,
          KIYOSHI YAGI, MAHITO CHIBA, SEIKEN TOKURA, NAOAKI KAWAKAMI
     UNIVERSITY OF AARHUS: FRANK JENSEN
     UNIVERSITY OF IOWA: VISVALDAS KAIRYS, HUI LI
     NATIONAL INST. OF STANDARDS AND TECHNOLOGY: WALT STEVENS, DAVID GARMER
     UNIVERSITY OF PISA: BENEDETTA MENNUCCI, JACOPO TOMASI
     UNIVERSITY OF MEMPHIS: HENRY KURTZ, PRAKASHAN KORAMBATH
     UNIVERSITY OF ALBERTA: TOBY ZENG, MARIUSZ KLOBUKOWSKI
     UNIVERSITY OF NEW ENGLAND: MARK SPACKMAN
     MIE UNIVERSITY: HIROAKI UMEDA
     NAT. INST. OF ADVANCED INDUSTRIAL SCIENCE AND TECHNOLOGY: KAZUO KITAURA
     MICHIGAN STATE UNIVERSITY:
          KAROL KOWALSKI, MARTA WLOCH, JEFFREY GOUR, JESSE LUTZ,
          WEI LI, JUN SHEN, J. EMILIANO DEUSTUA, PIOTR PIECUCH
     UNIVERSITY OF MINNESOTA:
          YINAN SHU
     UNIVERSITY OF SILESIA: MONIKA MUSIAL, STANISLAW KUCHARSKI
     FACULTES UNIVERSITAIRES NOTRE-DAME DE LA PAIX:
          OLIVIER QUINET, BENOIT CHAMPAGNE
     UNIVERSITY OF CALIFORNIA - SANTA BARBARA: BERNARD KIRTMAN
     INSTITUTE FOR MOLECULAR SCIENCE:
          KAZUYA ISHIMURA, MICHIO KATOUDA, AND SHIGERU NAGASE
     UNIVERSITY OF NOTRE DAME: ANNA POMOGAEVA, DAN CHIPMAN
     KYUSHU UNIVERSITY:
          HARUYUKI NAKANO,
          FENG LONG GU, JACEK KORCHOWIEC, MARCIN MAKOWSKI, AND YURIKO AOKI,
          HIROTOSHI MORI AND EISAKU MIYOSHI
     PENNSYLVANIA STATE UNIVERSITY:
          TZVETELIN IORDANOV, CHET SWALINA, JONATHAN SKONE,
          SHARON HAMMES-SCHIFFER
     WASEDA UNIVERSITY:
          MASATO KOBAYASHI, TOMOKO AKAMA, TSUGUKI TOUMA,
          TAKESHI YOSHIKAWA, YASUHIRO IKABATA, JUNJI SEINO,
          YUYA NAKAJIMA, HIROMI NAKAI
     NANJING UNIVERSITY: SHUHUA LI
     UNIVERSITY OF NEBRASKA:
          PEIFENG SU, DEJUN SI, NANDUN THELLAMUREGE, YALI WANG, HUI LI
     UNIVERSITY OF ZURICH: ROBERTO PEVERATI, KIM BALDRIDGE
     N. COPERNICUS UNIVERSITY AND JACKSON STATE UNIVERSITY:
          MARIA BARYSZ
     UNIVERSITY OF COPENHAGEN: Jimmy Kromann, CASPER STEINMANN
     TOKYO INSTITUTE OF TECHNOLOGY: HIROYA NAKATA
     NAGOYA UNIVERSITY: YOSHIO NISHIMOTO, STEPHAN IRLE
     MOSCOW STATE UNIVERSITY: VLADIMIR MIRONOV
     A.N.NESMEYANOV INSTITUTE OF ORGANOELEMENT COMPOUNDS OF RUSSIAN ACADEMY OF SCIENCES:
          IGOR S. GERASIMOV

 EXECUTION OF GAMESS BEGUN Wed Dec 22 15:06:59 2021

            ECHO OF THE FIRST FEW INPUT CARDS -
 INPUT CARD>!File created by the GAMESS Input Deck Generator Plugin for Avogadro            
 INPUT CARD> $BASIS GBASIS=STO NGAUSS=3 $END                                                
 INPUT CARD> $CONTRL SCFTYP=RHF RUNTYP=IRC ICHARG=-1 $END                                   
 INPUT CARD> $STATPT  HESS=READ ihrep=5 $END                                                
 INPUT CARD> $irc npoint=100 saddle=.t. tsengy=.t. forwrd=.f. opttol=0.0005 stride=0.1 $end 
 INPUT CARD>                                                                                
 INPUT CARD> $DATA                                                                          
 INPUT CARD>Title                                                                           
 INPUT CARD>C1                                                                              
 INPUT CARD>C     6.0     1.16573179    -0.02006579    -0.09334900                          
 INPUT CARD>C     6.0     2.69111252    -0.40090543    -0.35256091                          
 INPUT CARD>N     7.0     3.20831943    -0.71447140     1.06789064                          
 INPUT CARD>Cl    17.0     3.54361868     1.34013844    -0.63592786                         
 INPUT CARD>H     1.0     0.82660121    -0.29747957     0.90351403                          
 INPUT CARD>H     1.0     0.52244371    -0.54926461    -0.79765922                          
 INPUT CARD>H     1.0     0.94897896     1.03681898    -0.21339175                          
 INPUT CARD>H     1.0     2.73858285    -1.61758494     1.29199588                          
 INPUT CARD>H     1.0     4.18980837    -1.03004837     0.92645228                          
 INPUT CARD> $END                                                                           
 INPUT CARD>                                                                                
 INPUT CARD> $HESS                                                                          
 INPUT CARD>ENERGY IS     -585.8277100311 E(NUC) IS      151.1413480842                     
 INPUT CARD> 1  1 6.37262692E-01 2.84472738E-02 3.81274109E-02-2.14674899E-01 1.55317454E-02
 INPUT CARD> 1  2-5.64336101E-04-3.00513358E-02 9.96370225E-03 5.78362138E-03-1.67063037E-02
 INPUT CARD> 1  3 5.67669871E-03 6.69569800E-03-1.06222152E-01-2.72368241E-02 9.03075692E-02
 INPUT CARD> 1  4-1.88300690E-01-9.69481510E-02-1.26405668E-01-7.96636790E-02 6.09869559E-02
 INPUT CARD> 1  5-9.17401602E-03 4.15734482E-05 2.23912813E-04 4.50565889E-04-1.68507668E-03
 INPUT CARD> 1  6 3.35491326E-03-5.22069563E-03                                             
 INPUT CARD> 2  1 2.84472738E-02 8.08867988E-01-1.76441491E-02 5.54726488E-02-1.01213297E-01
 INPUT CARD> 2  2-1.22708753E-03 7.01281977E-03-2.70536039E-03-8.71373261E-03-2.97974638E-02
 INPUT CARD> 2  3 1.17403406E-03 8.65227429E-03-3.52594360E-02-1.04361804E-01 8.74924847E-02
 INPUT CARD> 2  4-1.10184165E-01-1.66694785E-01-1.11309141E-01 8.15564912E-02-4.36728136E-01
 INPUT CARD> 2  5 3.89475382E-02 8.41618159E-04 5.44528445E-04 1.25138244E-04 1.91012066E-03
 INPUT CARD> 2  6 1.11668400E-03 3.67734239E-03                                             
 INPUT CARD> 3  1 3.81274109E-02-1.76441491E-02 8.06183686E-01 6.17683905E-02-1.21496659E-02
 INPUT CARD> 3  2-1.02768806E-01-4.94836979E-02 1.61696732E-02 7.90609729E-03 6.47717772E-04
 INPUT CARD> 3  3-4.33929023E-03-7.51536730E-05 1.09316491E-01 8.20841481E-02-3.84868579E-01
 INPUT CARD> 3  4-1.42350948E-01-1.10886465E-01-2.33346394E-01-1.28100270E-02 4.35523324E-02
 INPUT CARD> 3  5-8.46825098E-02 1.07701341E-04-3.03880056E-04 9.44287155E-04-5.32315880E-03
 INPUT CARD> 3  6 3.51718083E-03-9.29273229E-03                                             
 INPUT CARD> 4  1-2.14674899E-01 5.54726488E-02 6.17683905E-02 4.08526571E-01-1.75189001E-02
 INPUT CARD> 4  2 3.67629863E-02-1.18724151E-01 6.45974356E-03-6.87294216E-02-4.56216495E-02
 INPUT CARD> 4  3-4.87716238E-02-1.06272660E-02-9.00037866E-03 3.71408111E-03 1.09662804E-03
 INPUT CARD> 4  4-1.31482851E-02 5.27760198E-03 3.43371994E-03-3.09901430E-03-1.03935135E-03
 INPUT CARD> 4  5 1.34169960E-03 6.70893316E-03-1.11200685E-02 2.20908962E-02-1.09671651E-02
 INPUT CARD> 4  6 7.52581098E-03-4.71380220E-02                                             
 INPUT CARD> 5  1 1.55317454E-02-1.01213297E-01-1.21496659E-02-1.75189001E-02 2.73427891E-01
 INPUT CARD> 5  2-2.88074572E-02-8.76393996E-03-6.19564043E-02 1.22122173E-02-1.88328212E-02
 INPUT CARD> 5  3-1.06448460E-01-2.04273871E-02-5.23256924E-03 1.39358920E-03-4.97067109E-04
 INPUT CARD> 5  4-1.39463901E-02 7.78668842E-03 5.56266369E-03 3.56943828E-02-2.34688874E-03
    1000000 WORDS OF MEMORY AVAILABLE

     BASIS OPTIONS
     -------------
     GBASIS=STO          IGAUSS=       3      POLAR=NONE    
     NDFUNC=       0     NFFUNC=       0     DIFFSP=       F
     NPFUNC=       0      DIFFS=       F     BASNAM=        


     RUN TITLE
     ---------
 Title                                                                           

 THE POINT GROUP OF THE MOLECULE IS C1      
 THE ORDER OF THE PRINCIPAL AXIS IS     0

 ATOM      ATOMIC                      COORDINATES (BOHR)
           CHARGE         X                   Y                   Z
 C           6.0     2.2029136583       -0.0379188448       -0.1764040312
 C           6.0     5.0854652649       -0.7576014097       -0.6662435139
 N           7.0     6.0628446038       -1.3501551721        2.0180206945
 CL         17.0     6.6964683102        2.5324944372       -1.2017294034
 H           1.0     1.5620497880       -0.5621548742        1.7073939428
 H           1.0     0.9872754559       -1.0379596077       -1.5073573574
 H           1.0     1.7933102025        1.9593037711       -0.4032519355
 H           1.0     5.1751711812       -3.0567922985        2.4415181905
 H           1.0     7.9175897604       -1.9465091734        1.7507409499

          INTERNUCLEAR DISTANCES (ANGS.)
          ------------------------------

                1 C          2 C          3 N          4 CL         5 H     

   1 C       0.0000000    1.5934290 *  2.4500696 *  2.7926499 *  1.0889003 *
   2 C       1.5934290 *  0.0000000    1.5438618 *  1.9591573 *  2.2505163 *
   3 N       2.4500696 *  1.5438618 *  0.0000000    2.6901384 *  2.4235271 *
   4 CL      2.7926499 *  1.9591573 *  2.6901384 *  0.0000000    3.5261676  
   5 H       1.0889003 *  2.2505163 *  2.4235271 *  3.5261676    0.0000000  
   6 H       1.0908363 *  2.2188392 *  3.2743699    3.5670014    1.7463957 *
   7 H       1.0855402 *  2.2630618 *  3.1326222    2.6462605 *  1.7443645 *
   8 H       2.6353573 *  2.0462477 *  1.0423482 *  3.6212015    2.3556889 *
   9 H       3.3474018    2.0682806 *  1.0406316 *  2.9114220 *  3.4421426  

                6 H          7 H          8 H          9 H     

   1 C       1.0908363 *  1.0855402 *  2.6353573 *  3.3474018  
   2 C       2.2188392 *  2.2630618 *  2.0462477 *  2.0682806 *
   3 N       3.2743699    3.1326222    1.0423482 *  1.0406316 *
   4 CL      3.5670014    2.6462605 *  3.6212015    2.9114220 *
   5 H       1.7463957 *  1.7443645 *  2.3556889 *  3.4421426  
   6 H       0.0000000    1.7432619 *  3.2278847    4.0808427  
   7 H       1.7432619 *  0.0000000    3.5376170    4.0092593  
   8 H       3.2278847    3.5376170    0.0000000    1.6077552 *
   9 H       4.0808427    4.0092593    1.6077552 *  0.0000000  

  * ... LESS THAN  3.000


     ATOMIC BASIS SET
     ----------------
 THE CONTRACTED PRIMITIVE FUNCTIONS HAVE BEEN UNNORMALIZED
 THE CONTRACTED BASIS FUNCTIONS ARE NOW NORMALIZED TO UNITY

  SHELL TYPE  PRIMITIVE        EXPONENT          CONTRACTION COEFFICIENT(S)

 C         

      1   S       1            71.6168373    0.154328967295
      1   S       2            13.0450963    0.535328142282
      1   S       3             3.5305122    0.444634542185

      2   L       4             2.9412494   -0.099967229187    0.155916274999
      2   L       5             0.6834831    0.399512826089    0.607683718598
      2   L       6             0.2222899    0.700115468880    0.391957393099

 C         

      3   S       7            71.6168373    0.154328967295
      3   S       8            13.0450963    0.535328142282
      3   S       9             3.5305122    0.444634542185

      4   L      10             2.9412494   -0.099967229187    0.155916274999
      4   L      11             0.6834831    0.399512826089    0.607683718598
      4   L      12             0.2222899    0.700115468880    0.391957393099

 N         

      5   S      13            99.1061690    0.154328967295
      5   S      14            18.0523124    0.535328142282
      5   S      15             4.8856602    0.444634542185

      6   L      16             3.7804559   -0.099967229187    0.155916274999
      6   L      17             0.8784966    0.399512826089    0.607683718598
      6   L      18             0.2857144    0.700115468880    0.391957393099

 CL        

      7   S      19           601.3456136    0.154328967295
      7   S      20           109.5358542    0.535328142282
      7   S      21            29.6446769    0.444634542185

      8   L      22            38.9604189   -0.099967229187    0.155916274999
      8   L      23             9.0535635    0.399512826089    0.607683718598
      8   L      24             2.9444998    0.700115468880    0.391957393099

      9   L      25             2.2112785   -0.219620369005    0.010587604289
      9   L      26             0.6169411    0.225595433605    0.595167005266
      9   L      27             0.2414666    0.900398426019    0.462001011973

 H         

     10   S      28             3.4252509    0.154328967295
     10   S      29             0.6239137    0.535328142282
     10   S      30             0.1688554    0.444634542185

 H         

     11   S      31             3.4252509    0.154328967295
     11   S      32             0.6239137    0.535328142282
     11   S      33             0.1688554    0.444634542185

 H         

     12   S      34             3.4252509    0.154328967295
     12   S      35             0.6239137    0.535328142282
     12   S      36             0.1688554    0.444634542185

 H         

     13   S      37             3.4252509    0.154328967295
     13   S      38             0.6239137    0.535328142282
     13   S      39             0.1688554    0.444634542185

 H         

     14   S      40             3.4252509    0.154328967295
     14   S      41             0.6239137    0.535328142282
     14   S      42             0.1688554    0.444634542185

 TOTAL NUMBER OF BASIS SET SHELLS             =   14
 NUMBER OF CARTESIAN GAUSSIAN BASIS FUNCTIONS =   29
 NUMBER OF ELECTRONS                          =   42
 CHARGE OF MOLECULE                           =   -1
 SPIN MULTIPLICITY                            =    1
 NUMBER OF OCCUPIED ORBITALS (ALPHA)          =   21
 NUMBER OF OCCUPIED ORBITALS (BETA )          =   21
 TOTAL NUMBER OF ATOMS                        =    9
 THE NUCLEAR REPULSION ENERGY IS      151.1413480842

     $CONTRL OPTIONS
     ---------------
 SCFTYP=RHF          RUNTYP=IRC          EXETYP=RUN     
 MPLEVL=       0     CITYP =NONE         CCTYP =NONE         VBTYP =NONE    
 DFTTYP=NONE         TDDFT =NONE    
 MULT  =       1     ICHARG=      -1     NZVAR =       0     COORD =UNIQUE  
 PP    =NONE         RELWFN=NONE         LOCAL =NONE         NUMGRD=       F
 ISPHER=      -1     NOSYM =       0     MAXIT =      30     UNITS =ANGS    
 PLTORB=       F     MOLPLT=       F     AIMPAC=       F     FRIEND=        
 NPRINT=       7     IREST =       0     GEOM  =INPUT   
 NORMF =       0     NORMP =       0     ITOL  =      20     ICUT  =       9
 INTTYP=BEST         GRDTYP=BEST         QMTTOL= 1.0E-06

     $SYSTEM OPTIONS
     ---------------
  REPLICATED MEMORY=     1000000 WORDS (ON EVERY NODE).
 DISTRIBUTED MEMDDI=           0 MILLION WORDS IN AGGREGATE,
 MEMDDI DISTRIBUTED OVER   1 PROCESSORS IS           0 WORDS/PROCESSOR.
 TOTAL MEMORY REQUESTED ON EACH PROCESSOR=     1000000 WORDS.
 TIMLIM=      525600.00 MINUTES, OR     365.0 DAYS.
 PARALL= F  BALTYP=  DLB     KDIAG=    0  COREFL= F
 MXSEQ2=     300 MXSEQ3=     150  mem10=         0

          ----------------
          PROPERTIES INPUT
          ----------------

     MOMENTS            FIELD           POTENTIAL          DENSITY
 IEMOM =       1   IEFLD =       0   IEPOT =       0   IEDEN =       0
 WHERE =COMASS     WHERE =NUCLEI     WHERE =NUCLEI     WHERE =NUCLEI  
 OUTPUT=BOTH       OUTPUT=BOTH       OUTPUT=BOTH       OUTPUT=BOTH    
 IEMINT=       0   IEFINT=       0                     IEDINT=       0
                                                       MORB  =       0
          EXTRAPOLATION IN EFFECT
          SOSCF IN EFFECT
 ORBITAL PRINTING OPTION: NPREO=     1    29     2     1

     -------------------------------
     INTEGRAL TRANSFORMATION OPTIONS
     -------------------------------
     NWORD  =            0
     CUTOFF = 1.0E-09     MPTRAN =       0
     DIRTRF =       F     AOINTS =DUP     

          ----------------------
          INTEGRAL INPUT OPTIONS
          ----------------------
 NOPK  =       1 NORDER=       0 SCHWRZ=       T

     ------------------------------------------
     THE POINT GROUP IS C1 , NAXIS= 0, ORDER= 1
     ------------------------------------------

     DIMENSIONS OF THE SYMMETRY SUBSPACES ARE
 A   =   29

 ..... DONE SETTING UP THE RUN .....
 STEP CPU TIME =     0.02 TOTAL CPU TIME =          0.0 (      0.0 MIN)
 TOTAL WALL CLOCK TIME=          0.0 SECONDS, CPU UTILIZATION IS    50.00%

          -----------------------------
          INTRINSIC REACTION COORDINATE
          -----------------------------
          PACE   =GS2     
          STRIDE = 0.10000 BOHR*SQRT(AMU)
          NPOINT =     100
          NEXTPT =       0
          STOTAL =  0.0000 BOHR*SQRT(AMU)
          SAB    =  0.0000 BOHR*SQRT(AMU)
          NPRT   =       0
          NPUN   =       0

          SADDLE =       T
          TSENGY =       T
          FORWRD =       F
          EVIB   = 0.00050 HARTREE
          FREQ   =     0.0 CM**-1

          STABLZ =       F
          ELBOW  =  175.00 DEGREES
          DELTA  = 0.02500 BOHR

          READQB =       F
          EB     =        0.0000000000 HARTREES
          GBNORM =        0.0000000000 HARTREES/SQRT(AMU)-BOHR

          GCUT   = 0.0000500 HARTREES/SQRT(AMU)-BOHR
          RCUT   = 0.0005000 BOHR
          ACUT   =    5.00 DEGREES
          MXOPT  =      20
          IHUPD  =       2

 ATOMIC MASSES USED (IN AMU) ARE
     C             12.0000
     C             12.0000
     N             14.0031
     CL            34.9689
     H              1.0078
     H              1.0078
     H              1.0078
     H              1.0078
     H              1.0078

 JUMP AWAY FROM SADDLE POINT WILL BE FOUND FROM THE INPUT HESSIAN MATRIX

 COMPUTING WAVEFUNCTION AT TRANSITION STATE...

          ********************
          1 ELECTRON INTEGRALS
          ********************
 ...... END OF ONE-ELECTRON INTEGRALS ......
 STEP CPU TIME =     0.02 TOTAL CPU TIME =          0.0 (      0.0 MIN)
 TOTAL WALL CLOCK TIME=          0.1 SECONDS, CPU UTILIZATION IS    57.14%

          -------------
          GUESS OPTIONS
          -------------
          GUESS =HUCKEL            NORB  =       0          NORDER=       0
          MIX   =       F          PRTMO =       F          PUNMO =       F
          TOLZ  = 1.0E-08          TOLE  = 1.0E-05
          SYMDEN=       F          PURIFY=       F

 INITIAL GUESS ORBITALS GENERATED BY HUCKEL   ROUTINE.
 HUCKEL GUESS REQUIRES     15702 WORDS.

 SYMMETRIES FOR INITIAL GUESS ORBITALS FOLLOW.   BOTH SET(S).
    21 ORBITALS ARE OCCUPIED (    8 CORE ORBITALS).
     9=A       10=A       11=A       12=A       13=A       14=A       15=A   
    16=A       17=A       18=A       19=A       20=A       21=A       22=A   
    23=A       24=A       25=A       26=A       27=A       28=A       29=A   
 ...... END OF INITIAL ORBITAL SELECTION ......
 STEP CPU TIME =     0.01 TOTAL CPU TIME =          0.0 (      0.0 MIN)
 TOTAL WALL CLOCK TIME=          0.1 SECONDS, CPU UTILIZATION IS    62.50%

                    ----------------------
                    AO INTEGRAL TECHNOLOGY
                    ----------------------
     S,P,L SHELL ROTATED AXIS INTEGRALS, REPROGRAMMED BY
        KAZUYA ISHIMURA (IMS) AND JOSE SIERRA (SYNSTAR).
     S,P,D,L SHELL ROTATED AXIS INTEGRALS PROGRAMMED BY
        KAZUYA ISHIMURA (INSTITUTE FOR MOLECULAR SCIENCE).
     S,P,D,F,G SHELL TO TOTAL QUARTET ANGULAR MOMENTUM SUM 5,
        ERIC PROGRAM BY GRAHAM FLETCHER (ELORET AND NASA ADVANCED
        SUPERCOMPUTING DIVISION, AMES RESEARCH CENTER).
     S,P,D,F,G,L SHELL GENERAL RYS QUADRATURE PROGRAMMED BY
        MICHEL DUPUIS (PACIFIC NORTHWEST NATIONAL LABORATORY).

          --------------------
          2 ELECTRON INTEGRALS
          --------------------

 THE -PK- OPTION IS OFF, THE INTEGRALS ARE NOT IN SUPERMATRIX FORM.
 STORING   15000 INTEGRALS/RECORD ON DISK, USING 12 BYTES/INTEGRAL.
 TWO ELECTRON INTEGRAL EVALUATION REQUIRES   89461 WORDS OF MEMORY.
 SCHWARZ INEQUALITY OVERHEAD:       423 INTEGRALS, T=        0.00
 II,JST,KST,LST =  1  1  1  1 NREC =         1 INTLOC =    1
 II,JST,KST,LST =  2  1  1  1 NREC =         1 INTLOC =    2
 II,JST,KST,LST =  3  1  1  1 NREC =         1 INTLOC =   34
 II,JST,KST,LST =  4  1  1  1 NREC =         1 INTLOC =  133
 II,JST,KST,LST =  5  1  1  1 NREC =         1 INTLOC = 1342
 II,JST,KST,LST =  6  1  1  1 NREC =         1 INTLOC = 1886
 II,JST,KST,LST =  7  1  1  1 NREC =         1 INTLOC = 6706
 II,JST,KST,LST =  8  1  1  1 NREC =         1 INTLOC = 8318
 II,JST,KST,LST =  9  1  1  1 NREC =         2 INTLOC = 3245
 II,JST,KST,LST = 10  1  1  1 NREC =         3 INTLOC = 8894
 II,JST,KST,LST = 11  1  1  1 NREC =         4 INTLOC = 1254
 II,JST,KST,LST = 12  1  1  1 NREC =         4 INTLOC = 9488
 II,JST,KST,LST = 13  1  1  1 NREC =         5 INTLOC = 3859
 II,JST,KST,LST = 14  1  1  1 NREC =         5 INTLOC =14275
 SCHWARZ INEQUALITY TEST SKIPPED         833 INTEGRAL BLOCKS.
 TOTAL NUMBER OF NONZERO TWO-ELECTRON INTEGRALS =               85944
          6 INTEGRAL RECORDS WERE STORED ON DISK FILE  8.
  ...... END OF TWO-ELECTRON INTEGRALS .....
 STEP CPU TIME =     0.04 TOTAL CPU TIME =          0.1 (      0.0 MIN)
 TOTAL WALL CLOCK TIME=          0.1 SECONDS, CPU UTILIZATION IS    75.00%

          --------------------------
                 RHF SCF CALCULATION
          --------------------------

     NUCLEAR ENERGY =       151.1413480842
     MAXIT =   30     NPUNCH=    2
     EXTRAP=T  DAMP=F  SHIFT=F  RSTRCT=F  DIIS=F  DEM=F  SOSCF=T
     DENSITY MATRIX CONV=  1.00E-05
     SOSCF WILL OPTIMIZE     168 ORBITAL ROTATIONS, SOGTOL=   0.250
     MEMORY REQUIRED FOR RHF ITERS=     36965 WORDS.

 ITER EX DEM     TOTAL ENERGY        E CHANGE  DENSITY CHANGE     ORB. GRAD
   1  0  0     -585.4780294094  -585.4780294094   0.539081328   0.000000000
          ---------------START SECOND ORDER SCF---------------
   2  1  0     -585.8039169991    -0.3258875897   0.192662105   0.036519410
   3  2  0     -585.8247926508    -0.0208756517   0.102290666   0.012483301
   4  3  0     -585.8275458945    -0.0027532437   0.010046406   0.003177491
   5  4  0     -585.8276772849    -0.0001313904   0.006787343   0.001298491
   6  5  0     -585.8277090396    -0.0000317547   0.000551592   0.000194623
   7  6  0     -585.8277098692    -0.0000008296   0.000323706   0.000092933
   8  7  0     -585.8277100287    -0.0000001595   0.000025818   0.000011276
   9  8  0     -585.8277100309    -0.0000000022   0.000008800   0.000003608
  10  9  0     -585.8277100311    -0.0000000002   0.000001984   0.000000673

          -----------------
          DENSITY CONVERGED
          -----------------
     TIME TO FORM FOCK OPERATORS=       0.0 SECONDS (       0.0 SEC/ITER)
     TIME TO SOLVE SCF EQUATIONS=       0.0 SECONDS (       0.0 SEC/ITER)

 FINAL RHF ENERGY IS     -585.8277100311 AFTER  10 ITERATIONS

          ------------
          EIGENVECTORS
          ------------

                      1          2          3          4          5
                 -103.2011   -15.0595   -10.7964   -10.6817    -9.9215
                     A          A          A          A          A   
    1  C  1  S    0.000001  -0.000001   0.991969   0.002313   0.000046
    2  C  1  S   -0.000031   0.000274   0.037477  -0.005450   0.000523
    3  C  1  X    0.000007   0.000051  -0.001734  -0.004238  -0.000242
    4  C  1  Y   -0.000009  -0.000129   0.000225   0.000867   0.000078
    5  C  1  Z    0.000002   0.000007   0.000181   0.000416  -0.000008
    6  C  2  S   -0.000044   0.000438  -0.001273   0.992865   0.001713
    7  C  2  S    0.000256  -0.004115  -0.004854   0.029969  -0.005383
    8  C  2  X    0.000116  -0.001271   0.003629  -0.001877  -0.002340
    9  C  2  Y    0.000235   0.000769  -0.000913   0.003104  -0.004687
   10  C  2  Z   -0.000034  -0.003612  -0.000666   0.004720   0.000733
   11  N  3  S    0.000000   0.993518   0.000022   0.000504   0.000023
   12  N  3  S   -0.000022   0.030410   0.000168  -0.004566   0.000334
   13  N  3  X    0.000006   0.000946   0.000173   0.001443  -0.000137
   14  N  3  Y    0.000017  -0.004168  -0.000072  -0.001211  -0.000450
   15  N  3  Z    0.000009  -0.002659  -0.000095   0.003303  -0.000104
   16  CL 4  S    0.994479  -0.000000   0.000007   0.000160  -0.376858
   17  CL 4  S    0.015819   0.000010  -0.000009  -0.000458   1.052652
   18  CL 4  X   -0.000030   0.000003  -0.000017  -0.000189  -0.002399
   19  CL 4  Y   -0.000059   0.000007   0.000000  -0.000362  -0.004501
   20  CL 4  Z    0.000010   0.000018   0.000004   0.000082   0.000851
   21  CL 4  S   -0.001789   0.000101   0.000057  -0.003245   0.045221
   22  CL 4  X    0.000060  -0.000030   0.000060   0.001577  -0.001430
   23  CL 4  Y    0.000118  -0.000103  -0.000037   0.003047  -0.002784
   24  CL 4  Z   -0.000020  -0.000052  -0.000016  -0.000657   0.000490
   25  H  5  S    0.000004  -0.000176  -0.007131   0.000094  -0.000069
   26  H  6  S    0.000006  -0.000056  -0.007154  -0.000112  -0.000105
   27  H  7  S    0.000054   0.000012  -0.007123   0.000076  -0.001129
   28  H  8  S    0.000015  -0.006497  -0.000023  -0.000618  -0.000283
   29  H  9  S    0.000017  -0.006507  -0.000133  -0.000549  -0.000370

                      6          7          8          9         10
                   -7.3628    -7.3596    -7.3594    -0.8653    -0.7124
                     A          A          A          A          A   
    1  C  1  S   -0.000042  -0.000035   0.000019  -0.043089  -0.170112
    2  C  1  S   -0.000423  -0.000492   0.000183   0.114344   0.481878
    3  C  1  X    0.000072   0.000433  -0.000209   0.027305  -0.008293
    4  C  1  Y    0.000059   0.000294  -0.000190  -0.007961   0.009458
    5  C  1  Z    0.000015  -0.000088  -0.000052   0.006655  -0.002892
    6  C  2  S   -0.001352   0.000022  -0.000062  -0.083223  -0.068569
    7  C  2  S    0.007740  -0.000147   0.000415   0.213668   0.197882
    8  C  2  X    0.003114  -0.001841   0.000617   0.010288  -0.065599
    9  C  2  Y    0.006515   0.000676  -0.000134  -0.001599   0.058248
   10  C  2  Z   -0.000850  -0.000592  -0.002054   0.079724  -0.008444
   11  N  3  S   -0.000019   0.000026   0.000060  -0.202678   0.072486
   12  N  3  S   -0.000402   0.000191  -0.000027   0.684974  -0.257875
   13  N  3  X    0.000210  -0.000135  -0.000313   0.008102  -0.041761
   14  N  3  Y    0.000378  -0.000614  -0.000666  -0.085750   0.072780
   15  N  3  Z    0.000179  -0.000004   0.000015  -0.071369  -0.023539
   16  CL 4  S   -0.002379  -0.000025  -0.000043   0.011671   0.041924
   17  CL 4  S    0.006801   0.000071   0.000124  -0.038914  -0.138430
   18  CL 4  X    0.450966   0.861245  -0.181113   0.004120   0.011005
   19  CL 4  Y    0.860287  -0.390355   0.290249   0.009466   0.011397
   20  CL 4  Z   -0.181124   0.290159   0.928064  -0.004039  -0.002026
   21  CL 4  S   -0.003151   0.000001  -0.000112   0.118078   0.452380
   22  CL 4  X    0.021067   0.036434  -0.007581  -0.010932  -0.031797
   23  CL 4  Y    0.040386  -0.016565   0.012418  -0.025485  -0.032029
   24  CL 4  Z   -0.008348   0.012281   0.039176   0.011290   0.005680
   25  H  5  S    0.000056   0.000120   0.000006   0.032577   0.141379
   26  H  6  S    0.000098   0.000097  -0.000119   0.022265   0.146000
   27  H  7  S    0.000677   0.001293  -0.000484   0.023485   0.153108
   28  H  8  S    0.000315  -0.000133  -0.000158   0.161828  -0.085898
   29  H  9  S    0.000221  -0.000535  -0.000094   0.152746  -0.090603

                     11         12         13         14         15
                   -0.6620    -0.4400    -0.3488    -0.3147    -0.3025
                     A          A          A          A          A   
    1  C  1  S    0.121851   0.031422  -0.007258   0.001112   0.000515
    2  C  1  S   -0.350691  -0.086325   0.022603  -0.002012  -0.006654
    3  C  1  X    0.058764   0.291391  -0.038516  -0.080400  -0.123361
    4  C  1  Y    0.010019  -0.077668   0.140806  -0.387776  -0.322903
    5  C  1  Z   -0.014181  -0.020430  -0.225660  -0.340889   0.320515
    6  C  2  S   -0.011586  -0.176467  -0.027632  -0.024083   0.006367
    7  C  2  S    0.041446   0.594382   0.102001   0.087929  -0.020529
    8  C  2  X    0.072713  -0.044251   0.075219  -0.044294   0.088573
    9  C  2  Y    0.042877   0.005931   0.032228  -0.077738  -0.039426
   10  C  2  Z   -0.019236   0.081880  -0.052917  -0.100531   0.070965
   11  N  3  S    0.007193   0.027624  -0.002320   0.013786  -0.001442
   12  N  3  S   -0.024498  -0.099710   0.008472  -0.067771   0.013368
   13  N  3  X    0.020604  -0.163989   0.425100  -0.011453   0.192569
   14  N  3  Y    0.026931   0.157641   0.154440  -0.132531   0.186432
   15  N  3  Z   -0.015273  -0.229399  -0.127145   0.018195  -0.139804
   16  CL 4  S    0.075197  -0.026237  -0.011537   0.005010   0.002994
   17  CL 4  S   -0.247388   0.084719   0.037068  -0.016092  -0.009562
   18  CL 4  X    0.002764   0.023146   0.011411  -0.016218  -0.031625
   19  CL 4  Y    0.009170   0.045091   0.031810  -0.005682   0.003595
   20  CL 4  Z   -0.001743  -0.011011  -0.009849   0.017199  -0.010799
   21  CL 4  S    0.829501  -0.318428  -0.143462   0.062406   0.038300
   22  CL 4  X   -0.008351  -0.072954  -0.036463   0.054318   0.107124
   23  CL 4  Y   -0.026277  -0.142204  -0.103911   0.018245  -0.013448
   24  CL 4  Z    0.005400   0.035082   0.033126  -0.058522   0.037419
   25  H  5  S   -0.130853  -0.106858  -0.229966  -0.187426   0.404302
   26  H  6  S   -0.128051  -0.129140   0.105042   0.460212   0.016388
   27  H  7  S   -0.103402  -0.137994   0.161692  -0.314215  -0.332668
   28  H  8  S   -0.030170  -0.128536  -0.367216   0.101857  -0.277890
   29  H  9  S    0.005195  -0.175061   0.364522  -0.007104   0.165849

                     16         17         18         19         20
                   -0.1928    -0.1660    -0.1184    -0.0683    -0.0633
                     A          A          A          A          A   
    1  C  1  S   -0.030947  -0.021771  -0.024548   0.012148  -0.022733
    2  C  1  S    0.131878   0.094684   0.103050  -0.050702   0.096267
    3  C  1  X    0.353386   0.233944   0.202116  -0.073546   0.138972
    4  C  1  Y   -0.091226  -0.110304   0.003025  -0.046569   0.027317
    5  C  1  Z    0.118832  -0.075969  -0.046519   0.015813  -0.021527
    6  C  2  S   -0.034049   0.056136   0.017023   0.009143  -0.004005
    7  C  2  S    0.121072  -0.231196  -0.092619  -0.035957   0.010821
    8  C  2  X   -0.248837  -0.259808  -0.206568   0.058418  -0.080347
    9  C  2  Y    0.052211   0.209193  -0.194417   0.109267   0.008907
   10  C  2  Z   -0.261397   0.079238   0.229911   0.020988  -0.038966
   11  N  3  S    0.061472  -0.074896   0.014777   0.034434   0.019043
   12  N  3  S   -0.306538   0.370143  -0.077579  -0.174798  -0.093658
   13  N  3  X    0.306593   0.000045   0.050247   0.032294   0.034266
   14  N  3  Y   -0.336140   0.457348  -0.095382  -0.197049  -0.059410
   15  N  3  Z    0.198033   0.486116  -0.340273  -0.079464   0.116555
   16  CL 4  S   -0.001383   0.000938   0.008105  -0.001084   0.000192
   17  CL 4  S    0.004309  -0.002800  -0.024845   0.003062  -0.000590
   18  CL 4  X    0.042198   0.034181  -0.044299   0.139198  -0.229826
   19  CL 4  Y    0.005565  -0.042363  -0.205208  -0.004127   0.078226
   20  CL 4  Z    0.045616  -0.042055  -0.029066  -0.234489  -0.140059
   21  CL 4  S   -0.019626   0.015199   0.118413  -0.019476   0.002602
   22  CL 4  X   -0.145988  -0.120212   0.150198  -0.494747   0.821453
   23  CL 4  Y   -0.017597   0.145830   0.711813   0.020239  -0.280141
   24  CL 4  Z   -0.159610   0.148893   0.104238   0.835889   0.500495
   25  H  5  S    0.111604  -0.075118  -0.111783   0.037387  -0.043072
   26  H  6  S   -0.227401   0.035194  -0.057037   0.061061  -0.063910
   27  H  7  S   -0.116481  -0.120708   0.044566  -0.054442   0.019241
   28  H  8  S    0.107777  -0.157879  -0.100891   0.121778   0.068740
   29  H  9  S    0.303481  -0.034880   0.098741   0.034925   0.034298

                     21         22         23         24         25
                    0.0600     0.6553     0.8390     0.8715     0.8862
                     A          A          A          A          A   
    1  C  1  S    0.029532   0.005637  -0.000813   0.055529  -0.068282
    2  C  1  S   -0.132209  -0.029919   0.005281  -0.331506   0.376325
    3  C  1  X   -0.167401  -0.032080  -0.076502  -0.075832   0.555178
    4  C  1  Y    0.058867   0.207164   0.093831  -0.062644  -0.195495
    5  C  1  Z    0.043999  -0.029788  -0.537021  -0.327594  -0.163661
    6  C  2  S   -0.120161  -0.079164   0.081336   0.013462   0.079755
    7  C  2  S    0.550567   0.366295  -0.415237  -0.073540  -0.436689
    8  C  2  X    0.159458   0.337186  -0.338167  -0.209805   0.560987
    9  C  2  Y   -0.418161   0.834248   0.134281  -0.002799  -0.202227
   10  C  2  Z   -0.508598  -0.114532  -0.603353  -0.104839  -0.066782
   11  N  3  S   -0.018580   0.018574  -0.123099   0.108412  -0.006661
   12  N  3  S    0.110542  -0.118726   0.774361  -0.740043   0.045243
   13  N  3  X   -0.000280   0.048146  -0.052948  -0.254989   0.659684
   14  N  3  Y    0.198530  -0.024164  -0.126345   0.747952   0.301316
   15  N  3  Z    0.338560  -0.038125  -0.547449  -0.248087  -0.175972
   16  CL 4  S   -0.003348  -0.018996   0.002698  -0.000004   0.000924
   17  CL 4  S    0.010784   0.056324  -0.007984   0.000478  -0.002359
   18  CL 4  X   -0.005542  -0.072461  -0.001253   0.002378   0.012839
   19  CL 4  Y   -0.111135  -0.150395   0.018563   0.005622   0.004602
   20  CL 4  Z   -0.053464   0.023456  -0.018533   0.002890   0.001871
   21  CL 4  S   -0.042493  -0.304575   0.044716   0.005562   0.020435
   22  CL 4  X    0.018547   0.286513   0.004006  -0.009542  -0.053181
   23  CL 4  Y    0.403071   0.594313  -0.076392  -0.024639  -0.021214
   24  CL 4  Z    0.196896  -0.093014   0.074787  -0.010112  -0.005459
   25  H  5  S    0.095835   0.132456   0.542642   0.349959   0.059777
   26  H  6  S   -0.092516   0.142258  -0.381929  -0.145853  -0.071740
   27  H  7  S    0.094488  -0.277580  -0.184711   0.166521   0.074129
   28  H  8  S   -0.051016   0.203570  -0.305310   0.795133   0.604078
   29  H  9  S   -0.088042  -0.031499  -0.337412   0.684079  -0.658274

                     26         27         28         29
                    0.9239     0.9628     0.9721     0.9846
                     A          A          A          A   
    1  C  1  S   -0.001497   0.081823  -0.201790   0.078830
    2  C  1  S   -0.021663  -0.492282   1.292199  -0.507951
    3  C  1  X    0.772188  -0.121290  -0.402299   0.063604
    4  C  1  Y    0.526667   0.780270   0.471481   0.212012
    5  C  1  Z    0.050762   0.324721  -0.213038  -0.822856
    6  C  2  S    0.084048  -0.043138   0.010010  -0.066243
    7  C  2  S   -0.456355   0.251430  -0.044114   0.349518
    8  C  2  X    0.405723  -0.587122   0.140811   0.114176
    9  C  2  Y   -0.248093  -0.129147  -0.198437  -0.145235
   10  C  2  Z   -0.247831   0.064833   0.122009   0.627295
   11  N  3  S   -0.000988  -0.001840   0.030722   0.036065
   12  N  3  S    0.001448   0.013135  -0.205470  -0.213166
   13  N  3  X   -0.511958   0.505957  -0.066459   0.167155
   14  N  3  Y   -0.016754   0.171046   0.113878  -0.229227
   15  N  3  Z   -0.032757  -0.121240   0.089886   0.443542
   16  CL 4  S    0.002576   0.003686   0.003365   0.000195
   17  CL 4  S   -0.007325  -0.010425  -0.009856  -0.000616
   18  CL 4  X    0.015135   0.003510   0.019799   0.001462
   19  CL 4  Y    0.013901   0.024871   0.009507   0.001107
   20  CL 4  Z   -0.007705  -0.000146  -0.000449   0.008854
   21  CL 4  S    0.045935   0.065366   0.056109   0.001767
   22  CL 4  X   -0.063433  -0.015255  -0.081117  -0.006002
   23  CL 4  Y   -0.058206  -0.103661  -0.040671  -0.003180
   24  CL 4  Z    0.031566   0.002247   0.002153  -0.037630
   25  H  5  S    0.279242   0.094761  -0.343560   0.941362
   26  H  6  S    0.676789   0.670763  -0.625138  -0.138003
   27  H  7  S   -0.366936  -0.465816  -1.025628  -0.053317
   28  H  8  S   -0.259948   0.361551   0.124400  -0.172207
   29  H  9  S    0.429157  -0.395072   0.145465  -0.068385
 ...... END OF RHF CALCULATION ......
 STEP CPU TIME =     0.05 TOTAL CPU TIME =          0.1 (      0.0 MIN)
 TOTAL WALL CLOCK TIME=          0.2 SECONDS, CPU UTILIZATION IS    82.35%

     ----------------------------------------------------------------
     PROPERTY VALUES FOR THE RHF   SELF-CONSISTENT FIELD WAVEFUNCTION
     ----------------------------------------------------------------

          -----------------
          ENERGY COMPONENTS
          -----------------

         WAVEFUNCTION NORMALIZATION =       1.0000000000

                ONE ELECTRON ENERGY =   -1122.0651698335
                TWO ELECTRON ENERGY =     385.0961117182
           NUCLEAR REPULSION ENERGY =     151.1413480842
                                      ------------------
                       TOTAL ENERGY =    -585.8277100311

 ELECTRON-ELECTRON POTENTIAL ENERGY =     385.0961117182
  NUCLEUS-ELECTRON POTENTIAL ENERGY =   -1701.4943225848
   NUCLEUS-NUCLEUS POTENTIAL ENERGY =     151.1413480842
                                      ------------------
             TOTAL POTENTIAL ENERGY =   -1165.2568627824
               TOTAL KINETIC ENERGY =     579.4291527513
                 VIRIAL RATIO (V/T) =       2.0110428639

          ---------------------------------------
          MULLIKEN AND LOWDIN POPULATION ANALYSES
          ---------------------------------------

     ATOMIC MULLIKEN POPULATION IN EACH MOLECULAR ORBITAL

                      1          2          3          4          5

                  2.000000   2.000000   2.000000   2.000000   2.000000

    1            -0.000000   0.000001   2.003594  -0.000670   0.000000
    2             0.000003  -0.000491  -0.000585   2.001367  -0.000481
    3             0.000000   2.002072  -0.000000  -0.000479  -0.000000
    4             1.999997   0.000000  -0.000000  -0.000200   2.000488
    5             0.000000  -0.000001  -0.001001   0.000001  -0.000000
    6             0.000000  -0.000000  -0.001000  -0.000001  -0.000000
    7             0.000000   0.000000  -0.001008   0.000001  -0.000006
    8             0.000000  -0.000789  -0.000000  -0.000010  -0.000000
    9             0.000000  -0.000793  -0.000000  -0.000008  -0.000001

                      6          7          8          9         10

                  2.000000   2.000000   2.000000   2.000000   2.000000

    1             0.000000  -0.000001  -0.000000   0.063252   0.716371
    2            -0.000404  -0.000014  -0.000016   0.260306   0.199427
    3            -0.000000  -0.000000  -0.000001   1.252753   0.166064
    4             2.000405   2.000019   2.000017   0.046134   0.443506
    5            -0.000000  -0.000000   0.000000   0.010125   0.121560
    6            -0.000000  -0.000000  -0.000000   0.004454   0.131238
    7            -0.000001  -0.000004  -0.000001   0.005106   0.146853
    8            -0.000000  -0.000000  -0.000000   0.186894   0.034041
    9            -0.000000  -0.000001  -0.000000   0.170977   0.040940

                     11         12         13         14         15

                  2.000000   2.000000   2.000000   2.000000   2.000000

    1             0.362388   0.361876   0.252148   0.899405   0.707567
    2             0.063635   0.744268   0.064480   0.090849   0.057931
    3             0.008415   0.371904   0.699549   0.059707   0.267213
    4             1.319774   0.224879   0.062519   0.022897   0.037132
    5             0.093219   0.039110   0.148730   0.091207   0.410629
    6             0.089492   0.055881   0.030625   0.550633   0.000635
    7             0.058324   0.065337   0.073490   0.261085   0.285384
    8             0.004570   0.047269   0.334803   0.024121   0.169189
    9             0.000182   0.089476   0.333656   0.000096   0.064319

                     16         17         18         19         20

                  2.000000   2.000000   2.000000   2.000000   2.000000

    1             0.405292   0.188762   0.109978   0.019520   0.053689
    2             0.418085   0.418062   0.404359   0.044564   0.019068
    3             0.696929   1.174365   0.279129   0.122985   0.044034
    4             0.106077   0.125436   1.139782   1.772414   1.862018
    5             0.025708   0.011965   0.023483   0.002566   0.003159
    6             0.107886   0.002295   0.006212   0.006375   0.006965
    7             0.029141   0.029680   0.003462   0.004851   0.000539
    8             0.025815   0.046705   0.018073   0.024480   0.008214
    9             0.185066   0.002730   0.015522   0.002245   0.002314

                     21

                  2.000000

    1             0.069269
    2             1.289101
    3             0.270297
    4             0.322333
    5             0.012880
    6             0.011370
    7             0.012793
    8             0.002786
    9             0.009172

               ----- POPULATIONS IN EACH AO -----
                             MULLIKEN      LOWDIN
              1  C  1  S      1.99222     1.98561
              2  C  1  S      1.20627     1.04183
              3  C  1  X      1.07562     1.09548
              4  C  1  Y      0.98108     1.01338
              5  C  1  Z      0.95726     0.99360
              6  C  2  S      1.99519     1.99013
              7  C  2  S      1.55418     1.50829
              8  C  2  X      0.73343     0.79342
              9  C  2  Y      0.74778     0.79321
             10  C  2  Z      1.04294     1.09658
             11  N  3  S      1.99595     1.99295
             12  N  3  S      1.65223     1.47810
             13  N  3  X      1.02497     1.05514
             14  N  3  Y      1.31306     1.33609
             15  N  3  Z      1.42873     1.43527
             16  CL 4  S      1.99998     1.99992
             17  CL 4  S      1.99916     1.99893
             18  CL 4  X      1.99846     1.99715
             19  CL 4  Y      1.99388     1.98861
             20  CL 4  Z      1.99974     1.99953
             21  CL 4  S      1.96715     1.94401
             22  CL 4  X      1.90880     1.90693
             23  CL 4  Y      1.63292     1.62568
             24  CL 4  Z      1.98553     1.98498
             25  H  5  S      0.99334     1.01154
             26  H  6  S      1.00306     1.02011
             27  H  7  S      0.97503     0.99648
             28  H  8  S      0.92616     0.96196
             29  H  9  S      0.91589     0.95509

          ----- MULLIKEN ATOMIC OVERLAP POPULATIONS -----
          (OFF-DIAGONAL ELEMENTS NEED TO BE MULTIPLIED BY 2)

             1           2           3           4           5

    1    4.8233972
    2    0.3082683   5.4622549
    3   -0.0287528   0.2654703   6.5827582
    4   -0.0188846   0.1430478  -0.0189791  17.3833793
    5    0.3741226  -0.0136646  -0.0048875   0.0005937   0.6882909
    6    0.3762662  -0.0226634   0.0010136   0.0008931  -0.0275531
    7    0.3778431  -0.0118111   0.0005593  -0.0057812  -0.0231633
    8   -0.0020956  -0.0258632   0.3065391   0.0013388  -0.0005573
    9    0.0022764  -0.0315250   0.3112132   0.0000207   0.0001593

             6           7           8           9

    6    0.7012197
    7   -0.0260347   0.6634244
    8   -0.0000284   0.0000490   0.6847301
    9   -0.0000516  -0.0000586  -0.0379508   0.6718079

          TOTAL MULLIKEN AND LOWDIN ATOMIC POPULATIONS
       ATOM         MULL.POP.    CHARGE          LOW.POP.     CHARGE
    1 C             6.212441   -0.212441         6.129910   -0.129910
    2 C             6.073514   -0.073514         6.181635   -0.181635
    3 N             7.414934   -0.414934         7.297547   -0.297547
    4 CL           17.485629   -0.485629        17.445735   -0.445735
    5 H             0.993341    0.006659         1.011539   -0.011539
    6 H             1.003061   -0.003061         1.020114   -0.020114
    7 H             0.975027    0.024973         0.996478    0.003522
    8 H             0.926162    0.073838         0.961956    0.038044
    9 H             0.915892    0.084108         0.955086    0.044914

          -------------------------------
          BOND ORDER AND VALENCE ANALYSIS     BOND ORDER THRESHOLD=0.050
          -------------------------------

                   BOND                       BOND                       BOND
  ATOM PAIR DIST  ORDER      ATOM PAIR DIST  ORDER      ATOM PAIR DIST  ORDER
    1   2  1.593  0.965        1   5  1.089  0.983        1   6  1.091  0.983
    1   7  1.086  0.985        2   3  1.544  0.922        2   4  1.959  0.731
    3   8  1.042  0.967        3   9  1.041  0.972

                       TOTAL       BONDED        FREE
      ATOM            VALENCE     VALENCE     VALENCE
    1 C                 3.943       3.943      -0.000
    2 C                 2.649       2.649      -0.000
    3 N                 2.892       2.892       0.000
    4 CL                0.775       0.775      -0.000
    5 H                 1.000       1.000      -0.000
    6 H                 1.000       1.000       0.000
    7 H                 0.999       0.999      -0.000
    8 H                 0.995       0.995       0.000
    9 H                 0.993       0.993       0.000

          ---------------------
          ELECTROSTATIC MOMENTS
          ---------------------

 POINT   1           X           Y           Z (BOHR)    CHARGE
                 5.436392    0.710482   -0.254530       -1.00 (A.U.)
         DX          DY          DZ         /D/  (DEBYE)
    -0.703036   -0.561446    0.751659    1.172379
 ...... END OF PROPERTY EVALUATION ......
 STEP CPU TIME =     0.02 TOTAL CPU TIME =          0.2 (      0.0 MIN)
 TOTAL WALL CLOCK TIME=          0.2 SECONDS, CPU UTILIZATION IS    84.21%


 JUMPING OFF SADDLE POINT ALONG THE IMAGINARY NORMAL MODE...

 $HESS GROUP READ FROM CARDS
 ENERGY IS     -585.8277100311 E(NUC) IS      151.1413480842                     
 INITIAL DISPLACEMENT= -0.05 ALONG MODE WITH FREQUENCY=     271.318 I CM**-1
 THE COMPONENTS OF THE DISPLACEMENT ARE (BOHR) -
   -0.000038  -0.000011   0.000056
   -0.000077   0.000292  -0.000564
    0.000065  -0.001201  -0.001029
    0.000086   0.000455   0.000681
    0.005720   0.026288   0.009404
   -0.001888  -0.021203   0.017597
   -0.003740  -0.004078  -0.028173
   -0.001928  -0.000100  -0.000746
   -0.000670  -0.003364  -0.001381

 *********************************************
 ***** STARTING CONSTRAINED OPTIMIZATION *****
 *** TO FIND THE NEXT REACTION PATH POINT ****
 *********************************************
 CONSTRAINED OPTIMIZATION POINT   1 FOR PATH POINT   1
 COORDINATES OF SYMMETRY UNIQUE ATOMS (ANGS)
   ATOM   CHARGE       X              Y              Z
 ------------------------------------------------------------
 C           6.0   1.1656911051  -0.0200775142  -0.0932898063
 C           6.0   2.6910314610  -0.4005962280  -0.3531578309
 N           7.0   3.2083880148  -0.7157422717   1.0668016372
 CL         17.0   3.5437094710   1.3406202521  -0.6352066076
 H           1.0   0.8326553998  -0.2696578454   0.9134668536
 H           1.0   0.5204450648  -0.5717045761  -0.7790354271
 H           1.0   0.9450201959   1.0325033929  -0.2432092282
 H           1.0   2.7365420903  -1.6176912523   1.2912065342
 H           1.0   4.1890990078  -1.0336087534   0.9249902703
 ...... END OF ONE-ELECTRON INTEGRALS ......
 STEP CPU TIME =     0.01 TOTAL CPU TIME =          0.2 (      0.0 MIN)
 TOTAL WALL CLOCK TIME=          0.2 SECONDS, CPU UTILIZATION IS    85.00%
 TOTAL NUMBER OF NONZERO TWO-ELECTRON INTEGRALS =               85944
          6 INTEGRAL RECORDS WERE STORED ON DISK FILE  8.
  ...... END OF TWO-ELECTRON INTEGRALS .....
 STEP CPU TIME =     0.03 TOTAL CPU TIME =          0.2 (      0.0 MIN)
 TOTAL WALL CLOCK TIME=          0.2 SECONDS, CPU UTILIZATION IS    86.96%

          --------------------------
                 RHF SCF CALCULATION
          --------------------------
     DENSITY MATRIX CONV=  1.00E-05

 ITER EX DEM     TOTAL ENERGY        E CHANGE  DENSITY CHANGE     ORB. GRAD
          ---------------START SECOND ORDER SCF---------------
   1  0  0     -585.8275236653  -585.8275236653   0.011419525   0.003821074
   2  1  0     -585.8277030532    -0.0001793879   0.005498529   0.001206765
   3  2  0     -585.8277244911    -0.0000214378   0.000121494   0.000051809
   4  3  0     -585.8277245169    -0.0000000258   0.000152934   0.000029723
   5  4  0     -585.8277245268    -0.0000000099   0.000016215   0.000003683
   6  5  0     -585.8277245271    -0.0000000003   0.000009862   0.000001614
   7  6  0     -585.8277245272    -0.0000000001   0.000001344   0.000000347

          -----------------
          DENSITY CONVERGED
          -----------------
     TIME TO FORM FOCK OPERATORS=       0.0 SECONDS (       0.0 SEC/ITER)
     TIME TO SOLVE SCF EQUATIONS=       0.0 SECONDS (       0.0 SEC/ITER)

 FINAL RHF ENERGY IS     -585.8277245272 AFTER   7 ITERATIONS
 ...... END OF RHF CALCULATION ......
 STEP CPU TIME =     0.03 TOTAL CPU TIME =          0.2 (      0.0 MIN)
 TOTAL WALL CLOCK TIME=          0.3 SECONDS, CPU UTILIZATION IS    88.46%
 ..... END OF 1-ELECTRON GRADIENT ......
 STEP CPU TIME =     0.00 TOTAL CPU TIME =          0.2 (      0.0 MIN)
 TOTAL WALL CLOCK TIME=          0.3 SECONDS, CPU UTILIZATION IS    85.19%
 ...... END OF 2-ELECTRON GRADIENT ......
 STEP CPU TIME =     0.04 TOTAL CPU TIME =          0.3 (      0.0 MIN)
 TOTAL WALL CLOCK TIME=          0.3 SECONDS, CPU UTILIZATION IS    87.10%

 UNITS ARE HARTREE/BOHR    E'X               E'Y               E'Z 
    1 C                0.000089265      -0.000035423      -0.000100789
    2 C                0.000034398      -0.000007553       0.000061833
    3 N               -0.000080780       0.000503384      -0.000006056
    4 CL              -0.000038455      -0.000123129      -0.000110198
    5 H               -0.000084865      -0.000188129       0.000104216
    6 H                0.000010606       0.000068852      -0.000137697
    7 H                0.000014455       0.000124277       0.000152638
    8 H               -0.000222446      -0.000285973       0.000103915
    9 H                0.000277821      -0.000056307      -0.000067862

 CURRENT OPTIMIZATION POINT :
 ENERGY                                 =  -585.8277245 HARTREE
 MASS WEIGHTED TANGENT GRADIENT NORM    =     0.0005374 HARTREE/BOHR-SQRT(AMU)
 NEXT GEOMETRY STEP HAS PREDICTED ANGLE =         6.686 DEGREES
 AND CARTESIAN RMS DISPLACEMENT         =     0.0055920 BOHR

 CONSTRAINED OPTIMIZATION POINT   2 FOR PATH POINT   1
 COORDINATES OF SYMMETRY UNIQUE ATOMS (ANGS)
   ATOM   CHARGE       X              Y              Z
 ------------------------------------------------------------
 C           6.0   1.1656444910  -0.0200067608  -0.0932882142
 C           6.0   2.6909804049  -0.4006325097  -0.3531768379
 N           7.0   3.2082683902  -0.7158622630   1.0669098874
 CL         17.0   3.5437361244   1.3406186643  -0.6352320178
 H           1.0   0.8328052576  -0.2695118655   0.9133421664
 H           1.0   0.5201970381  -0.5714546413  -0.7788973881
 H           1.0   0.9450496147   1.0324745007  -0.2432007819
 H           1.0   2.7382451403  -1.6186058183   1.2902334484
 H           1.0   4.1893649542  -1.0317493649   0.9255265166
 ...... END OF ONE-ELECTRON INTEGRALS ......
 STEP CPU TIME =     0.01 TOTAL CPU TIME =          0.3 (      0.0 MIN)
 TOTAL WALL CLOCK TIME=          0.3 SECONDS, CPU UTILIZATION IS    90.32%
 TOTAL NUMBER OF NONZERO TWO-ELECTRON INTEGRALS =               85944
          6 INTEGRAL RECORDS WERE STORED ON DISK FILE  8.
  ...... END OF TWO-ELECTRON INTEGRALS .....
 STEP CPU TIME =     0.02 TOTAL CPU TIME =          0.3 (      0.0 MIN)
 TOTAL WALL CLOCK TIME=          0.3 SECONDS, CPU UTILIZATION IS    88.24%

          --------------------------
                 RHF SCF CALCULATION
          --------------------------
     DENSITY MATRIX CONV=  1.00E-05

 ITER EX DEM     TOTAL ENERGY        E CHANGE  DENSITY CHANGE     ORB. GRAD
          ---------------START SECOND ORDER SCF---------------
   1  0  0     -585.8277237838  -585.8277237838   0.000948715   0.000264990
   2  1  0     -585.8277247704    -0.0000009865   0.000586049   0.000118471
   3  2  0     -585.8277249513    -0.0000001809   0.000036018   0.000009229
   4  3  0     -585.8277249532    -0.0000000019   0.000016477   0.000004541
   5  4  0     -585.8277249535    -0.0000000003   0.000001097   0.000000384
   6  5  0     -585.8277249535    -0.0000000000   0.000000642   0.000000180

          -----------------
          DENSITY CONVERGED
          -----------------
     TIME TO FORM FOCK OPERATORS=       0.0 SECONDS (       0.0 SEC/ITER)
     TIME TO SOLVE SCF EQUATIONS=       0.0 SECONDS (       0.0 SEC/ITER)

 FINAL RHF ENERGY IS     -585.8277249535 AFTER   6 ITERATIONS
 ...... END OF RHF CALCULATION ......
 STEP CPU TIME =     0.02 TOTAL CPU TIME =          0.3 (      0.0 MIN)
 TOTAL WALL CLOCK TIME=          0.4 SECONDS, CPU UTILIZATION IS    88.89%
 ..... END OF 1-ELECTRON GRADIENT ......
 STEP CPU TIME =     0.01 TOTAL CPU TIME =          0.3 (      0.0 MIN)
 TOTAL WALL CLOCK TIME=          0.4 SECONDS, CPU UTILIZATION IS    89.19%
 ...... END OF 2-ELECTRON GRADIENT ......
 STEP CPU TIME =     0.04 TOTAL CPU TIME =          0.4 (      0.0 MIN)
 TOTAL WALL CLOCK TIME=          0.4 SECONDS, CPU UTILIZATION IS    90.24%

 UNITS ARE HARTREE/BOHR    E'X               E'Y               E'Z 
    1 C                0.000009580      -0.000006924      -0.000006028
    2 C                0.000012052      -0.000014427       0.000041310
    3 N                0.000013032       0.000111011       0.000067766
    4 CL              -0.000026865      -0.000089740      -0.000129552
    5 H               -0.000034547      -0.000149806      -0.000049414
    6 H                0.000013537       0.000114221      -0.000098247
    7 H                0.000020750       0.000022597       0.000156927
    8 H               -0.000005563       0.000012688       0.000014520
    9 H               -0.000001974       0.000000380       0.000002718

 ANGLE TO PREVIOUS OPTIMIZATION POINT IS   6.686
 LINEAR INTERPOLATION GIVES ANGLE          6.660

 CURRENT OPTIMIZATION POINT :
 ENERGY                                 =  -585.8277250 HARTREE
 MASS WEIGHTED TANGENT GRADIENT NORM    =     0.0000058 HARTREE/BOHR-SQRT(AMU)
 NEXT GEOMETRY STEP HAS PREDICTED ANGLE =         0.059 DEGREES
 AND CARTESIAN RMS DISPLACEMENT         =     0.0000397 BOHR

 *******************************************
 ***** END OF CONSTRAINED OPTIMIZATION *****
 *******************************************

 ANGLE BETWEEN GRADIENTS AT CURRENT AND PREVIOUS IRC POINT =   6.660
 ENERGY WAS LOWERED BY      0.0000004263 HARTREE DURING OPTIMIZATION

 ***** NEXT POINT ON IRC FOUND *****
 STEP DISTANCE IS   0.09983 SQRT(AMU)-BOHR)

1         POINT   1 ON THE REACTION PATH
          ******************************
          AT PATH DISTANCE STOTAL =   0.09983     SQRT(AMU)-BOHR
          TOTAL ENERGY            =  -585.8277250 HARTREE
            2 CONSTRAINED OPTIMIZATION STEPS WERE PERFORMED
  
 COORDINATES OF ALL ATOMS ARE (ANGS)
   ATOM   CHARGE       X              Y              Z
 ------------------------------------------------------------
 C           6.0   1.1656444910  -0.0200067608  -0.0932882142
 C           6.0   2.6909804049  -0.4006325097  -0.3531768379
 N           7.0   3.2082683902  -0.7158622630   1.0669098874
 CL         17.0   3.5437361244   1.3406186643  -0.6352320178
 H           1.0   0.8328052576  -0.2695118655   0.9133421664
 H           1.0   0.5201970381  -0.5714546413  -0.7788973881
 H           1.0   0.9450496147   1.0324745007  -0.2432007819
 H           1.0   2.7382451403  -1.6186058183   1.2902334484
 H           1.0   4.1893649542  -1.0317493649   0.9255265166
  

          INTERNUCLEAR DISTANCES (ANGS.)
          ------------------------------

                1 C          2 C          3 N          4 CL         5 H     

   1 C       0.0000000    1.5934452 *  2.4500177 *  2.7929061 *  1.0891921 *
   2 C       1.5934452 *  0.0000000    1.5438921 *  1.9592609 *  2.2525714 *
   3 N       2.4500177 *  1.5438921 *  0.0000000    2.6905277 *  2.4219077 *
   4 CL      2.7929061 *  1.9592609 *  2.6905277 *  0.0000000    3.5127978  
   5 H       1.0891921 *  2.2525714 *  2.4219077 *  3.5127978    0.0000000  
   6 H       1.0912182 *  2.2187200 *  3.2639831    3.5802867    1.7471600 *
   7 H       1.0857498 *  2.2614519 *  3.1456686    2.6460939 *  1.7450957 *
   8 H       2.6349049 *  2.0460915 *  1.0419891 *  3.6212211    2.3649107 *
   9 H       3.3473112    2.0684649 *  1.0403482 *  2.9122043 *  3.4420412  

                6 H          7 H          8 H          9 H     

   1 C       1.0912182 *  1.0857498 *  2.6349049 *  3.3473112  
   2 C       2.2187200 *  2.2614519 *  2.0460915 *  2.0684649 *
   3 N       3.2639831    3.1456686    1.0419891 *  1.0403482 *
   4 CL      3.5802867    2.6460939 *  3.6212211    2.9122043 *
   5 H       1.7471600 *  1.7450957 *  2.3649107 *  3.4420412  
   6 H       0.0000000    1.7435766 *  3.2089820    4.0718209  
   7 H       1.7435766 *  0.0000000    3.5489713    4.0190205  
   8 H       3.2089820    3.5489713    0.0000000    1.6072213 *
   9 H       4.0718209    4.0190205    1.6072213 *  0.0000000  

  * ... LESS THAN  3.000


          CURRENT CARTESIAN GRADIENT
          ATOM               DE/DX          DE/DY          DE/DZ
          -----------------------------------------------------------
          C                0.0000098925  -0.0000070361  -0.0000064005
          C                0.0000121393  -0.0000143996   0.0000413903
          N                0.0000126637   0.0001125521   0.0000674759
          CL              -0.0000269110  -0.0000898707  -0.0001294759
          H               -0.0000347450  -0.0001499568  -0.0000488102
          H                0.0000135253   0.0001140425  -0.0000984015
          H                0.0000207249   0.0000229967   0.0001569103
          H               -0.0000064147   0.0000115148   0.0000148711
          H               -0.0000008755   0.0000001570   0.0000024405
  
 CONVERGED ORBITALS AT IRC POINT                    1

                      1          2          3          4          5
                 -103.2010   -15.0595   -10.7964   -10.6817    -9.9214
                     A          A          A          A          A   
    1  C  1  S   -0.000001  -0.000001  -0.991970   0.002313  -0.000046
    2  C  1  S    0.000031   0.000278  -0.037467  -0.005450  -0.000524
    3  C  1  X   -0.000008   0.000051   0.001728  -0.004238   0.000244
    4  C  1  Y    0.000009  -0.000127  -0.000232   0.000865  -0.000075
    5  C  1  Z   -0.000002   0.000015  -0.000171   0.000419   0.000025
    6  C  2  S    0.000044   0.000438   0.001273   0.992865  -0.001713
    7  C  2  S   -0.000256  -0.004115   0.004854   0.029967   0.005382
    8  C  2  X   -0.000116  -0.001272  -0.003629  -0.001877   0.002340
    9  C  2  Y   -0.000235   0.000773   0.000913   0.003097   0.004686
   10  C  2  Z    0.000034  -0.003611   0.000668   0.004724  -0.000729
   11  N  3  S   -0.000000   0.993518  -0.000021   0.000504  -0.000023
   12  N  3  S    0.000022   0.030417  -0.000172  -0.004566  -0.000334
   13  N  3  X   -0.000006   0.000944  -0.000171   0.001443   0.000137
   14  N  3  Y   -0.000017  -0.004170   0.000072  -0.001215   0.000449
   15  N  3  Z   -0.000009  -0.002660   0.000094   0.003301   0.000104
   16  CL 4  S   -0.994479  -0.000000  -0.000007   0.000160   0.376858
   17  CL 4  S   -0.015819   0.000010   0.000009  -0.000458  -1.052652
   18  CL 4  X    0.000030   0.000003   0.000017  -0.000189   0.002400
   19  CL 4  Y    0.000059   0.000007  -0.000000  -0.000362   0.004498
   20  CL 4  Z   -0.000010   0.000018  -0.000005   0.000082  -0.000851
   21  CL 4  S    0.001789   0.000101  -0.000057  -0.003244  -0.045220
   22  CL 4  X   -0.000060  -0.000030  -0.000059   0.001577   0.001430
   23  CL 4  Y   -0.000118  -0.000103   0.000037   0.003046   0.002783
   24  CL 4  Z    0.000020  -0.000051   0.000019  -0.000655  -0.000487
   25  H  5  S   -0.000003  -0.000187   0.007124   0.000096   0.000064
   26  H  6  S   -0.000006  -0.000051   0.007151  -0.000113   0.000112
   27  H  7  S   -0.000054   0.000010   0.007122   0.000076   0.001129
   28  H  8  S   -0.000015  -0.006501   0.000031  -0.000618   0.000283
   29  H  9  S   -0.000017  -0.006510   0.000132  -0.000549   0.000370

                      6          7          8          9         10
                   -7.3627    -7.3595    -7.3593    -0.8654    -0.7123
                     A          A          A          A          A   
    1  C  1  S   -0.000042  -0.000034   0.000020  -0.042997  -0.170039
    2  C  1  S   -0.000424  -0.000497   0.000173   0.114099   0.481740
    3  C  1  X    0.000074   0.000436  -0.000209   0.027304  -0.008120
    4  C  1  Y    0.000062   0.000291  -0.000205  -0.007919   0.009565
    5  C  1  Z    0.000027  -0.000066  -0.000057   0.006587  -0.003094
    6  C  2  S   -0.001352   0.000022  -0.000062  -0.083154  -0.068686
    7  C  2  S    0.007739  -0.000147   0.000418   0.213472   0.198230
    8  C  2  X    0.003114  -0.001841   0.000620   0.010305  -0.065562
    9  C  2  Y    0.006515   0.000676  -0.000129  -0.001727   0.058279
   10  C  2  Z   -0.000845  -0.000594  -0.002054   0.079687  -0.008310
   11  N  3  S   -0.000019   0.000026   0.000060  -0.202728   0.072357
   12  N  3  S   -0.000402   0.000192  -0.000027   0.685094  -0.257405
   13  N  3  X    0.000210  -0.000136  -0.000313   0.008109  -0.041754
   14  N  3  Y    0.000377  -0.000614  -0.000664  -0.085841   0.072869
   15  N  3  Z    0.000179  -0.000005   0.000014  -0.071362  -0.023586
   16  CL 4  S   -0.002379  -0.000026  -0.000043   0.011643   0.041974
   17  CL 4  S    0.006799   0.000072   0.000123  -0.038820  -0.138596
   18  CL 4  X    0.451162   0.861063  -0.181486   0.004113   0.011017
   19  CL 4  Y    0.860229  -0.390474   0.290262   0.009453   0.011416
   20  CL 4  Z   -0.180914   0.290537   0.927987  -0.004025  -0.002022
   21  CL 4  S   -0.003150   0.000000  -0.000114   0.117785   0.452919
   22  CL 4  X    0.021076   0.036428  -0.007596  -0.010913  -0.031831
   23  CL 4  Y    0.040383  -0.016570   0.012420  -0.025447  -0.032080
   24  CL 4  Z   -0.008336   0.012298   0.039172   0.011253   0.005675
   25  H  5  S    0.000050   0.000111   0.000006   0.032468   0.141107
   26  H  6  S    0.000105   0.000104  -0.000124   0.022293   0.145863
   27  H  7  S    0.000676   0.001304  -0.000457   0.023342   0.153189
   28  H  8  S    0.000315  -0.000133  -0.000158   0.161941  -0.085844
   29  H  9  S    0.000221  -0.000535  -0.000093   0.152820  -0.090539

                     11         12         13         14         15
                   -0.6619    -0.4400    -0.3487    -0.3147    -0.3027
                     A          A          A          A          A   
    1  C  1  S   -0.121969   0.031500  -0.007160   0.001156  -0.000455
    2  C  1  S    0.351103  -0.086617   0.022211  -0.002134   0.006375
    3  C  1  X   -0.058682   0.291263  -0.038781  -0.079960   0.123716
    4  C  1  Y   -0.009897  -0.077641   0.138312  -0.387597   0.323755
    5  C  1  Z    0.014046  -0.020350  -0.225503  -0.340304  -0.320919
    6  C  2  S    0.011515  -0.176451  -0.027725  -0.024076  -0.006443
    7  C  2  S   -0.041242   0.594336   0.102332   0.087885   0.020777
    8  C  2  X   -0.072795  -0.044121   0.075288  -0.044811  -0.088227
    9  C  2  Y   -0.042826   0.005757   0.031860  -0.077986   0.039677
   10  C  2  Z    0.019199   0.082009  -0.053109  -0.100352  -0.071331
   11  N  3  S   -0.007126   0.027559  -0.002212   0.013869   0.001605
   12  N  3  S    0.024250  -0.099409   0.007994  -0.068191  -0.014152
   13  N  3  X   -0.020655  -0.164082   0.426351  -0.013080  -0.190189
   14  N  3  Y   -0.026855   0.158000   0.154439  -0.134073  -0.186208
   15  N  3  Z    0.015228  -0.229372  -0.127573   0.018149   0.138864
   16  CL 4  S   -0.075176  -0.026232  -0.011523   0.005010  -0.003066
   17  CL 4  S    0.247316   0.084701   0.037021  -0.016091   0.009792
   18  CL 4  X   -0.002754   0.023117   0.011358  -0.016065   0.031775
   19  CL 4  Y   -0.009152   0.045071   0.031789  -0.005919  -0.003441
   20  CL 4  Z    0.001738  -0.010996  -0.009744   0.017123   0.010852
   21  CL 4  S   -0.829275  -0.318344  -0.143291   0.062387  -0.039212
   22  CL 4  X    0.008322  -0.072862  -0.036275   0.053812  -0.107607
   23  CL 4  Y    0.026225  -0.142143  -0.103843   0.019047   0.012942
   24  CL 4  Z   -0.005380   0.035033   0.032778  -0.058273  -0.037596
   25  H  5  S    0.130490  -0.107066  -0.227375  -0.200482  -0.398418
   26  H  6  S    0.128470  -0.128799   0.099808   0.461920  -0.029784
   27  H  7  S    0.103551  -0.138275   0.164477  -0.303295   0.340348
   28  H  8  S    0.030084  -0.128448  -0.368035   0.103808   0.276188
   29  H  9  S   -0.005278  -0.175173   0.365512  -0.008485  -0.163658

                     16         17         18         19         20
                   -0.1926    -0.1660    -0.1184    -0.0683    -0.0633
                     A          A          A          A          A   
    1  C  1  S   -0.031014   0.021656   0.024571  -0.012090   0.022729
    2  C  1  S    0.132168  -0.094170  -0.103154   0.050378  -0.096285
    3  C  1  X    0.353833  -0.233487  -0.202188   0.073560  -0.138421
    4  C  1  Y   -0.091966   0.110282  -0.003425   0.045733  -0.027515
    5  C  1  Z    0.120108   0.076960   0.045988  -0.016969   0.022585
    6  C  2  S   -0.034020  -0.056112  -0.017134  -0.009170   0.003971
    7  C  2  S    0.120963   0.231092   0.093082   0.036055  -0.010688
    8  C  2  X   -0.249328   0.259519   0.206492  -0.058591   0.080070
    9  C  2  Y    0.052836  -0.208944   0.194373  -0.109491  -0.009006
   10  C  2  Z   -0.261047  -0.079790  -0.230078  -0.021335   0.038723
   11  N  3  S    0.061406   0.074956  -0.014804  -0.034436  -0.019036
   12  N  3  S   -0.306220  -0.370454   0.077714   0.174836   0.093640
   13  N  3  X    0.306166   0.000324  -0.050310  -0.032173  -0.034155
   14  N  3  Y   -0.335659  -0.457245   0.095181   0.197248   0.059514
   15  N  3  Z    0.198451  -0.486364   0.340653   0.079934  -0.116054
   16  CL 4  S   -0.001361  -0.000935  -0.008104   0.001092  -0.000192
   17  CL 4  S    0.004238   0.002792   0.024843  -0.003089   0.000593
   18  CL 4  X    0.041983  -0.034168   0.044207  -0.139516   0.229684
   19  CL 4  Y    0.005543   0.042387   0.205139   0.003963  -0.078267
   20  CL 4  Z    0.045490   0.042227   0.029201   0.234254   0.140358
   21  CL 4  S   -0.019331  -0.015167  -0.118400   0.019593  -0.002610
   22  CL 4  X   -0.145250   0.120163  -0.149870   0.495875  -0.820940
   23  CL 4  Y   -0.017526  -0.145914  -0.711565  -0.019665   0.280281
   24  CL 4  Z   -0.159167  -0.149493  -0.104704  -0.835039  -0.501559
   25  H  5  S    0.113776   0.078241   0.109871  -0.035283   0.041681
   26  H  6  S   -0.223660  -0.036526   0.059966  -0.062615   0.064847
   27  H  7  S   -0.122952   0.118547  -0.045497   0.054198  -0.018759
   28  H  8  S    0.107356   0.157694   0.100934  -0.121748  -0.068665
   29  H  9  S    0.303224   0.035383  -0.098826  -0.034915  -0.034202

                     21         22         23         24         25
                    0.0600     0.6555     0.8386     0.8717     0.8864
                     A          A          A          A          A   
    1  C  1  S    0.029540   0.005640  -0.000135   0.056250   0.067999
    2  C  1  S   -0.132252  -0.029864   0.000149  -0.335116  -0.374810
    3  C  1  X   -0.167350  -0.032789   0.080222  -0.088242  -0.553093
    4  C  1  Y    0.059345   0.206380  -0.093453  -0.071063   0.200065
    5  C  1  Z    0.043309  -0.030680   0.537738  -0.323030   0.167856
    6  C  2  S   -0.120153  -0.079196  -0.080787   0.011797  -0.081153
    7  C  2  S    0.550505   0.366465   0.412245  -0.064676   0.444054
    8  C  2  X    0.159346   0.336724   0.343026  -0.216660  -0.555232
    9  C  2  Y   -0.417443   0.835026  -0.136541   0.004101   0.198793
   10  C  2  Z   -0.509106  -0.113233   0.601950  -0.102366   0.078835
   11  N  3  S   -0.018530   0.018438   0.122619   0.108861   0.006339
   12  N  3  S    0.110294  -0.117937  -0.771287  -0.743135  -0.042261
   13  N  3  X   -0.000231   0.048087   0.059968  -0.264087  -0.653459
   14  N  3  Y    0.197911  -0.025097   0.127347   0.743055  -0.312387
   15  N  3  Z    0.338254  -0.038120   0.546398  -0.243731   0.187216
   16  CL 4  S   -0.003346  -0.018996  -0.002731  -0.000067  -0.000928
   17  CL 4  S    0.010778   0.056323   0.008092   0.000649   0.002365
   18  CL 4  X   -0.005512  -0.072486   0.001065   0.002101  -0.012827
   19  CL 4  Y   -0.111283  -0.150364  -0.018606   0.005106  -0.004668
   20  CL 4  Z   -0.053666   0.023465   0.018502   0.002903  -0.001671
   21  CL 4  S   -0.042477  -0.304574  -0.045122   0.004337  -0.020551
   22  CL 4  X    0.018437   0.286614  -0.003300  -0.008354   0.053123
   23  CL 4  Y    0.403609   0.594203   0.076535  -0.022483   0.021524
   24  CL 4  Z    0.197626  -0.093027  -0.074644  -0.010218   0.004628
   25  H  5  S    0.099422   0.125298  -0.547205   0.348483  -0.066076
   26  H  6  S   -0.092488   0.148317   0.369304  -0.148050   0.077961
   27  H  7  S    0.090979  -0.277136   0.198800   0.165282  -0.075200
   28  H  8  S   -0.050914   0.203046   0.308687   0.787117  -0.614008
   29  H  9  S   -0.087854  -0.032106   0.329162   0.694581   0.649691

                     26         27         28         29
                    0.9241     0.9621     0.9719     0.9847
                     A          A          A          A   
    1  C  1  S    0.001461   0.078472   0.205196  -0.072877
    2  C  1  S   -0.039932  -0.470475  -1.312916   0.469841
    3  C  1  X    0.774381  -0.133541   0.394963  -0.052940
    4  C  1  Y    0.530080   0.784647  -0.455062  -0.215581
    5  C  1  Z    0.046723   0.313878   0.199350   0.831029
    6  C  2  S    0.083266  -0.043388  -0.013376   0.065703
    7  C  2  S   -0.452240   0.252905   0.062489  -0.346692
    8  C  2  X    0.399935  -0.587439  -0.151400  -0.121249
    9  C  2  Y   -0.247396  -0.131080   0.193859   0.150966
   10  C  2  Z   -0.245084   0.069003  -0.101373  -0.631679
   11  N  3  S   -0.000156  -0.000675  -0.029832  -0.037396
   12  N  3  S   -0.004250   0.005043   0.200522   0.221928
   13  N  3  X   -0.508525   0.508528   0.084238  -0.171146
   14  N  3  Y   -0.011493   0.178496  -0.118285   0.223302
   15  N  3  Z   -0.033333  -0.120660  -0.079107  -0.444303
   16  CL 4  S    0.002546   0.003702  -0.003321  -0.000310
   17  CL 4  S   -0.007231  -0.010467   0.009732   0.000958
   18  CL 4  X    0.014890   0.003647  -0.019912  -0.002300
   19  CL 4  Y    0.013971   0.024987  -0.009166  -0.001268
   20  CL 4  Z   -0.007441   0.000122   0.000520  -0.008935
   21  CL 4  S    0.045544   0.065713  -0.055352  -0.003600
   22  CL 4  X   -0.062454  -0.015831   0.081554   0.009377
   23  CL 4  Y   -0.058488  -0.104158   0.039285   0.003899
   24  CL 4  Z    0.030535   0.001200  -0.002495   0.037928
   25  H  5  S    0.273180   0.073516   0.372740  -0.931792
   26  H  6  S    0.695156   0.660200   0.618493   0.144829
   27  H  7  S   -0.355793  -0.471210   1.021580   0.093151
   28  H  8  S   -0.251638   0.372884  -0.122097   0.160435
   29  H  9  S    0.429548  -0.393537  -0.158267   0.068411

 THE NUCLEAR REPULSION AT THE IRC POINT IS      151.1331688522

 * * * IRC RESTART INFORMATION * * *
 COORDINATES FOR $DATA AND ENTIRE $IRC GROUP FOLLOW

 COORDINATES OF SYMMETRY UNIQUE ATOMS (ANGS)
   ATOM   CHARGE       X              Y              Z
 ------------------------------------------------------------
 C           6.0   1.1656444910  -0.0200067608  -0.0932882142
 C           6.0   2.6909804049  -0.4006325097  -0.3531768379
 N           7.0   3.2082683902  -0.7158622630   1.0669098874
 CL         17.0   3.5437361244   1.3406186643  -0.6352320178
 H           1.0   0.8328052576  -0.2695118655   0.9133421664
 H           1.0   0.5201970381  -0.5714546413  -0.7788973881
 H           1.0   0.9450496147   1.0324745007  -0.2432007819
 H           1.0   2.7382451403  -1.6186058183   1.2902334484
 H           1.0   4.1893649542  -1.0317493649   0.9255265166
 $IRC   PACE=GS2        STRIDE= 0.10000   NPOINT=??
        STOTAL=  0.099833   NEXTPT=   2
        NPRT= 0   NPUN= 0   SADDLE=.FALSE.
        GA(   1)= 9.892533085E-06,-7.036103384E-06,-6.400527656E-06
        GA(   4)= 1.213931720E-05,-1.439961151E-05, 4.139029069E-05
        GA(   7)= 1.266370699E-05, 1.125520601E-04, 6.747591763E-05
        GA(  10)=-2.691096395E-05,-8.987073864E-05,-1.294758798E-04
        GA(  13)=-3.474500329E-05,-1.499567794E-04,-4.881021757E-05
        GA(  16)= 1.352533347E-05, 1.140425239E-04,-9.840149181E-05
        GA(  19)= 2.072486655E-05, 2.299670355E-05, 1.569103207E-04
        GA(  22)=-6.414736452E-06, 1.151484980E-05, 1.487109566E-05
        GA(  25)=-8.755016668E-07, 1.570249158E-07, 2.440498697E-06
 $END   
 A GS2 RESTART ALSO REQUIRES THE UPDATED $HESS GROUP FROM THE PUNCH FILE

 *********************************************
 ***** STARTING CONSTRAINED OPTIMIZATION *****
 *** TO FIND THE NEXT REACTION PATH POINT ****
 *********************************************
 CONSTRAINED OPTIMIZATION POINT   1 FOR PATH POINT   2
 COORDINATES OF SYMMETRY UNIQUE ATOMS (ANGS)
   ATOM   CHARGE       X              Y              Z
 ------------------------------------------------------------
 C           6.0   1.1654869569  -0.0198948615  -0.0931861766
 C           6.0   2.6907870674  -0.4004027920  -0.3538366532
 N           7.0   3.2080958427  -0.7173995371   1.0659875697
 CL         17.0   3.5438832516   1.3411103606  -0.6345235450
 H           1.0   0.8394003794  -0.2410458433   0.9226084062
 H           1.0   0.5176304736  -0.5931045540  -0.7602181725
 H           1.0   0.9411152557   1.0281091031  -0.2729874217
 H           1.0   2.7394561619  -1.6207881028   1.2874142691
 H           1.0   4.1895301012  -1.0317864891   0.9250611221
 ...... END OF ONE-ELECTRON INTEGRALS ......
 STEP CPU TIME =     0.01 TOTAL CPU TIME =          0.4 (      0.0 MIN)
 TOTAL WALL CLOCK TIME=          0.4 SECONDS, CPU UTILIZATION IS    90.48%
 TOTAL NUMBER OF NONZERO TWO-ELECTRON INTEGRALS =               85938
          6 INTEGRAL RECORDS WERE STORED ON DISK FILE  8.
  ...... END OF TWO-ELECTRON INTEGRALS .....
 STEP CPU TIME =     0.02 TOTAL CPU TIME =          0.4 (      0.0 MIN)
 TOTAL WALL CLOCK TIME=          0.4 SECONDS, CPU UTILIZATION IS    90.91%

          --------------------------
                 RHF SCF CALCULATION
          --------------------------
     DENSITY MATRIX CONV=  1.00E-05

 ITER EX DEM     TOTAL ENERGY        E CHANGE  DENSITY CHANGE     ORB. GRAD
          ---------------START SECOND ORDER SCF---------------
   1  0  0     -585.8275627202  -585.8275627202   0.011334922   0.003866650
   2  1  0     -585.8277413851    -0.0001786649   0.005460488   0.001213687
   3  2  0     -585.8277627635    -0.0000213784   0.000124425   0.000046857
   4  3  0     -585.8277627889    -0.0000000255   0.000141560   0.000026753
   5  4  0     -585.8277627979    -0.0000000089   0.000018191   0.000004295
   6  5  0     -585.8277627982    -0.0000000004   0.000009905   0.000001437
   7  6  0     -585.8277627983    -0.0000000001   0.000001325   0.000000325

          -----------------
          DENSITY CONVERGED
          -----------------
     TIME TO FORM FOCK OPERATORS=       0.0 SECONDS (       0.0 SEC/ITER)
     TIME TO SOLVE SCF EQUATIONS=       0.0 SECONDS (       0.0 SEC/ITER)

 FINAL RHF ENERGY IS     -585.8277627983 AFTER   7 ITERATIONS
 ...... END OF RHF CALCULATION ......
 STEP CPU TIME =     0.03 TOTAL CPU TIME =          0.4 (      0.0 MIN)
 TOTAL WALL CLOCK TIME=          0.5 SECONDS, CPU UTILIZATION IS    91.49%
 ..... END OF 1-ELECTRON GRADIENT ......
 STEP CPU TIME =     0.01 TOTAL CPU TIME =          0.4 (      0.0 MIN)
 TOTAL WALL CLOCK TIME=          0.5 SECONDS, CPU UTILIZATION IS    91.67%
 ...... END OF 2-ELECTRON GRADIENT ......
 STEP CPU TIME =     0.03 TOTAL CPU TIME =          0.5 (      0.0 MIN)
 TOTAL WALL CLOCK TIME=          0.5 SECONDS, CPU UTILIZATION IS    90.38%

 UNITS ARE HARTREE/BOHR    E'X               E'Y               E'Z 
    1 C                0.000479080      -0.000455950       0.000537450
    2 C                0.000004768      -0.000048691       0.000058787
    3 N               -0.000028897      -0.000271123       0.000266946
    4 CL               0.000001072      -0.000095011      -0.000301327
    5 H                0.000001412      -0.000309276       0.000183708
    6 H               -0.000494209      -0.000232858      -0.000855376
    7 H               -0.000082904       0.000974372       0.000109965
    8 H                0.000309060       0.000408620      -0.000108277
    9 H               -0.000189382       0.000029918       0.000108125

 CURRENT OPTIMIZATION POINT :
 ENERGY                                 =  -585.8277628 HARTREE
 MASS WEIGHTED TANGENT GRADIENT NORM    =     0.0015140 HARTREE/BOHR-SQRT(AMU)
 NEXT GEOMETRY STEP HAS PREDICTED ANGLE =         7.241 DEGREES
 AND CARTESIAN RMS DISPLACEMENT         =     0.0059778 BOHR

 CONSTRAINED OPTIMIZATION POINT   2 FOR PATH POINT   2
 COORDINATES OF SYMMETRY UNIQUE ATOMS (ANGS)
   ATOM   CHARGE       X              Y              Z
 ------------------------------------------------------------
[...]
 MASS WEIGHTED TANGENT GRADIENT NORM    =     0.0000342 HARTREE/BOHR-SQRT(AMU)
 NEXT GEOMETRY STEP HAS PREDICTED ANGLE =         0.209 DEGREES
 AND CARTESIAN RMS DISPLACEMENT         =     0.0001397 BOHR

 *******************************************
 ***** END OF CONSTRAINED OPTIMIZATION *****
 *******************************************

 ANGLE BETWEEN GRADIENTS AT CURRENT AND PREVIOUS IRC POINT =   5.297
 ENERGY WAS LOWERED BY      0.0000049132 HARTREE DURING OPTIMIZATION

 ***** NEXT POINT ON IRC FOUND *****
 STEP DISTANCE IS   0.09989 SQRT(AMU)-BOHR)

1         POINT  32 ON THE REACTION PATH
          ******************************
          AT PATH DISTANCE STOTAL =   3.19817     SQRT(AMU)-BOHR
          TOTAL ENERGY            =  -585.8341127 HARTREE
            3 CONSTRAINED OPTIMIZATION STEPS WERE PERFORMED
  
 COORDINATES OF ALL ATOMS ARE (ANGS)
   ATOM   CHARGE       X              Y              Z
 ------------------------------------------------------------
 C           6.0   1.1962615819   0.0029886801  -0.0984715401
 C           6.0   2.6952460496  -0.3985919335  -0.3739126272
 N           7.0   3.2050901959  -0.7616555670   1.0354179030
 CL         17.0   3.5330119369   1.3523953257  -0.6111218903
 H           1.0   1.0243806015   0.6150337013   0.7879759573
 H           1.0   0.6019721201  -0.9036438298   0.0241446044
 H           1.0   0.7801680669   0.5373971644  -0.9488215867
 H           1.0   2.6650163352  -1.6208516943   1.2697903423
 H           1.0   4.1550421665  -1.1572328210   0.8835322507
  

          INTERNUCLEAR DISTANCES (ANGS.)
          ------------------------------

                1 C          2 C          3 N          4 CL         5 H     

   1 C       0.0000000    1.5760994 *  2.4301808 *  2.7466545 *  1.0908397 *
   2 C       1.5760994 *  0.0000000    1.5420664 *  1.9555246 *  2.2735904 *
   3 N       2.4301808 *  1.5420664 *  0.0000000    2.6995994 *  2.5907519 *
   4 CL      2.7466545 *  1.9555246 *  2.6995994 *  0.0000000    2.9655367 *
   5 H       1.0908397 *  2.2735904 *  2.5907519 *  2.9655367 *  0.0000000  
   6 H       1.0909616 *  2.1898225 *  2.7962579 *  3.7529016    1.7516417 *
   7 H       1.0871161 *  2.2077408 *  3.3919009    2.8907460 *  1.7556004 *
   8 H       2.5819060 *  2.0485586 *  1.0415509 *  3.6237336    2.8147849 *
   9 H       3.3263836    2.0706782 *  1.0401728 *  2.9864939 *  3.5987639  

                6 H          7 H          8 H          9 H     

   1 C       1.0909616 *  1.0871161 *  2.5819060 *  3.3263836  
   2 C       2.1898225 *  2.2077408 *  2.0485586 *  2.0706782 *
   3 N       2.7962579 *  3.3919009    1.0415509 *  1.0401728 *
   4 CL      3.7529016    2.8907460 *  3.6237336    2.9864939 *
   5 H       1.7516417 *  1.7556004 *  2.8147849 *  3.5987639  
   6 H       0.0000000    1.7478604 *  2.5143929 *  3.6643091  
   7 H       1.7478604 *  0.0000000    3.6239385    4.1975072  
   8 H       2.5143929 *  3.6239385    0.0000000    1.6075804 *
   9 H       3.6643091    4.1975072    1.6075804 *  0.0000000  

  * ... LESS THAN  3.000


          CURRENT CARTESIAN GRADIENT
          ATOM               DE/DX          DE/DY          DE/DZ
          -----------------------------------------------------------
          C               -0.0001785864  -0.0001836145   0.0000823495
          C               -0.0000647245   0.0000322200   0.0000998068
          N                0.0000276724   0.0002815893   0.0001462526
          CL               0.0002640190  -0.0001220262  -0.0003726013
          H               -0.0000690686  -0.0003410609   0.0002246160
          H               -0.0000859000  -0.0000416088  -0.0003897213
          H                0.0001014924   0.0003079091   0.0001748328
          H                0.0000161698   0.0000289399   0.0000183767
          H               -0.0000110741   0.0000376519   0.0000160883

 THE NUCLEAR REPULSION AT THE IRC POINT IS      151.7180255529

 * * * IRC RESTART INFORMATION * * *
 COORDINATES FOR $DATA AND ENTIRE $IRC GROUP FOLLOW

 COORDINATES OF SYMMETRY UNIQUE ATOMS (ANGS)
   ATOM   CHARGE       X              Y              Z
 ------------------------------------------------------------
 C           6.0   1.1962615819   0.0029886801  -0.0984715401
 C           6.0   2.6952460496  -0.3985919335  -0.3739126272
 N           7.0   3.2050901959  -0.7616555670   1.0354179030
 CL         17.0   3.5330119369   1.3523953257  -0.6111218903
 H           1.0   1.0243806015   0.6150337013   0.7879759573
 H           1.0   0.6019721201  -0.9036438298   0.0241446044
 H           1.0   0.7801680669   0.5373971644  -0.9488215867
 H           1.0   2.6650163352  -1.6208516943   1.2697903423
 H           1.0   4.1550421665  -1.1572328210   0.8835322507
 $IRC   PACE=GS2        STRIDE= 0.10000   NPOINT=??
        STOTAL=  3.198174   NEXTPT=  33
        NPRT= 0   NPUN= 0   SADDLE=.FALSE.
        GA(   1)=-1.785864133E-04,-1.836145286E-04, 8.234947793E-05
        GA(   4)=-6.472447814E-05, 3.222000865E-05, 9.980681004E-05
        GA(   7)= 2.767235023E-05, 2.815892751E-04, 1.462525800E-04
        GA(  10)= 2.640189724E-04,-1.220262098E-04,-3.726013246E-04
        GA(  13)=-6.906857773E-05,-3.410609452E-04, 2.246160242E-04
        GA(  16)=-8.590003929E-05,-4.160878160E-05,-3.897213227E-04
        GA(  19)= 1.014923643E-04, 3.079091418E-04, 1.748327907E-04
        GA(  22)= 1.616979301E-05, 2.893991883E-05, 1.837673739E-05
        GA(  25)=-1.107407601E-05, 3.765194460E-05, 1.608827873E-05
 $END   
 A GS2 RESTART ALSO REQUIRES THE UPDATED $HESS GROUP FROM THE PUNCH FILE

 *********************************************
 ***** STARTING CONSTRAINED OPTIMIZATION *****
 *** TO FIND THE NEXT REACTION PATH POINT ****
 *********************************************
 CONSTRAINED OPTIMIZATION POINT   1 FOR PATH POINT  33
 COORDINATES OF SYMMETRY UNIQUE ATOMS (ANGS)
   ATOM   CHARGE       X              Y              Z
 ------------------------------------------------------------
 C           6.0   1.1973901777   0.0041650064  -0.0990052989
 C           6.0   2.6956564391  -0.3987916489  -0.3745180250
 N           7.0   3.2049561957  -0.7631963597   1.0346346275
 CL         17.0   3.5324335064   1.3526598726  -0.6103192251
 H           1.0   1.0295409988   0.6406751520   0.7710981315
 H           1.0   0.6084619108  -0.9005196452   0.0533551741
 H           1.0   0.7725188909   0.5142727795  -0.9619657763
 H           1.0   2.6637979154  -1.6230206812   1.2684102877
 H           1.0   4.1558669934  -1.1601041766   0.8823202420
 ...... END OF ONE-ELECTRON INTEGRALS ......
 STEP CPU TIME =     0.01 TOTAL CPU TIME =          8.1 (      0.1 MIN)
 TOTAL WALL CLOCK TIME=          9.1 SECONDS, CPU UTILIZATION IS    89.64%
 TOTAL NUMBER OF NONZERO TWO-ELECTRON INTEGRALS =               85994
          6 INTEGRAL RECORDS WERE STORED ON DISK FILE  8.
  ...... END OF TWO-ELECTRON INTEGRALS .....
 STEP CPU TIME =     0.02 TOTAL CPU TIME =          8.1 (      0.1 MIN)
 TOTAL WALL CLOCK TIME=          9.1 SECONDS, CPU UTILIZATION IS    89.56%

          --------------------------
                 RHF SCF CALCULATION
          --------------------------
     DENSITY MATRIX CONV=  1.00E-05

 ITER EX DEM     TOTAL ENERGY        E CHANGE  DENSITY CHANGE     ORB. GRAD
          ---------------START SECOND ORDER SCF---------------
   1  0  0     -585.8339799824  -585.8339799824   0.011168051   0.003184947
   2  1  0     -585.8341442148    -0.0001642324   0.005352728   0.001051699
   3  2  0     -585.8341633366    -0.0000191218   0.000086319   0.000020873
   4  3  0     -585.8341633501    -0.0000000135   0.000020647   0.000006487
   5  4  0     -585.8341633514    -0.0000000013   0.000007008   0.000001831
   6  5  0     -585.8341633515    -0.0000000001   0.000002279   0.000000440

          -----------------
          DENSITY CONVERGED
          -----------------
     TIME TO FORM FOCK OPERATORS=       0.0 SECONDS (       0.0 SEC/ITER)
     TIME TO SOLVE SCF EQUATIONS=       0.0 SECONDS (       0.0 SEC/ITER)

 FINAL RHF ENERGY IS     -585.8341633515 AFTER   6 ITERATIONS
 ...... END OF RHF CALCULATION ......
 STEP CPU TIME =     0.04 TOTAL CPU TIME =          8.2 (      0.1 MIN)
 TOTAL WALL CLOCK TIME=          9.2 SECONDS, CPU UTILIZATION IS    89.41%
 ..... END OF 1-ELECTRON GRADIENT ......
 STEP CPU TIME =     0.02 TOTAL CPU TIME =          8.2 (      0.1 MIN)
 TOTAL WALL CLOCK TIME=          9.2 SECONDS, CPU UTILIZATION IS    89.43%
 ...... END OF 2-ELECTRON GRADIENT ......
 STEP CPU TIME =     0.06 TOTAL CPU TIME =          8.3 (      0.1 MIN)
 TOTAL WALL CLOCK TIME=          9.2 SECONDS, CPU UTILIZATION IS    89.60%

 UNITS ARE HARTREE/BOHR    E'X               E'Y               E'Z 
    1 C                0.000053767      -0.001432315       0.000937971
    2 C               -0.000042141      -0.000001518       0.000206116
    3 N               -0.000811730       0.001385369      -0.000061844
    4 CL               0.000115786      -0.000046186      -0.000240741
    5 H               -0.000047274      -0.000035359       0.000276247
    6 H                0.000359443       0.000412836      -0.000275795
    7 H               -0.000427940       0.000925656      -0.000929781
    8 H               -0.000523038      -0.000715596       0.000264777
    9 H                0.001323127      -0.000492888      -0.000176950

 CURRENT OPTIMIZATION POINT :
 ENERGY                                 =  -585.8341634 HARTREE
 MASS WEIGHTED TANGENT GRADIENT NORM    =     0.0023541 HARTREE/BOHR-SQRT(AMU)
 NEXT GEOMETRY STEP HAS PREDICTED ANGLE =         5.878 DEGREES
 AND CARTESIAN RMS DISPLACEMENT         =     0.0049841 BOHR

 CONSTRAINED OPTIMIZATION POINT   2 FOR PATH POINT  33
 COORDINATES OF SYMMETRY UNIQUE ATOMS (ANGS)
   ATOM   CHARGE       X              Y              Z
 ------------------------------------------------------------
 C           6.0   1.1973708549   0.0042710702  -0.0990169795
 C           6.0   2.6956513702  -0.3987614152  -0.3746167263
 N           7.0   3.2049377897  -0.7632514458   1.0346383246
 CL         17.0   3.5324636708   1.3526332649  -0.6103068850
 H           1.0   1.0294338680   0.6402951920   0.7711039338
 H           1.0   0.6077837947  -0.9007567935   0.0534524264
 H           1.0   0.7728882950   0.5132182234  -0.9610079655
 H           1.0   2.6647075487  -1.6226215771   1.2679167425
 H           1.0   4.1548727462  -1.1587658848   0.8825876819
 ...... END OF ONE-ELECTRON INTEGRALS ......
 STEP CPU TIME =     0.00 TOTAL CPU TIME =          8.3 (      0.1 MIN)
 TOTAL WALL CLOCK TIME=          9.2 SECONDS, CPU UTILIZATION IS    89.50%
 TOTAL NUMBER OF NONZERO TWO-ELECTRON INTEGRALS =               85993
          6 INTEGRAL RECORDS WERE STORED ON DISK FILE  8.
  ...... END OF TWO-ELECTRON INTEGRALS .....
 STEP CPU TIME =     0.03 TOTAL CPU TIME =          8.3 (      0.1 MIN)
 TOTAL WALL CLOCK TIME=          9.3 SECONDS, CPU UTILIZATION IS    89.54%

          --------------------------
                 RHF SCF CALCULATION
          --------------------------
     DENSITY MATRIX CONV=  1.00E-05

 ITER EX DEM     TOTAL ENERGY        E CHANGE  DENSITY CHANGE     ORB. GRAD
          ---------------START SECOND ORDER SCF---------------
   1  0  0     -585.8341681846  -585.8341681846   0.000559969   0.000220897
   2  1  0     -585.8341686046    -0.0000004200   0.000338111   0.000043292
   3  2  0     -585.8341686573    -0.0000000528   0.000052113   0.000024536
   4  3  0     -585.8341686597    -0.0000000023   0.000010650   0.000002892
   5  4  0     -585.8341686598    -0.0000000001   0.000002194   0.000000870
   6  5  0     -585.8341686598    -0.0000000000   0.000000722   0.000000261

          -----------------
          DENSITY CONVERGED
          -----------------
     TIME TO FORM FOCK OPERATORS=       0.0 SECONDS (       0.0 SEC/ITER)
     TIME TO SOLVE SCF EQUATIONS=       0.0 SECONDS (       0.0 SEC/ITER)

 FINAL RHF ENERGY IS     -585.8341686598 AFTER   6 ITERATIONS
 ...... END OF RHF CALCULATION ......
 STEP CPU TIME =     0.02 TOTAL CPU TIME =          8.3 (      0.1 MIN)
 TOTAL WALL CLOCK TIME=          9.3 SECONDS, CPU UTILIZATION IS    89.56%
 ..... END OF 1-ELECTRON GRADIENT ......
 STEP CPU TIME =     0.01 TOTAL CPU TIME =          8.3 (      0.1 MIN)
 TOTAL WALL CLOCK TIME=          9.3 SECONDS, CPU UTILIZATION IS    89.57%
 ...... END OF 2-ELECTRON GRADIENT ......
 STEP CPU TIME =     0.04 TOTAL CPU TIME =          8.4 (      0.1 MIN)
 TOTAL WALL CLOCK TIME=          9.3 SECONDS, CPU UTILIZATION IS    89.61%

 UNITS ARE HARTREE/BOHR    E'X               E'Y               E'Z 
    1 C               -0.000062824      -0.000160456       0.000057908
    2 C               -0.000023639       0.000028090       0.000048708
    3 N                0.000020202       0.000147408       0.000081200
    4 CL               0.000119119      -0.000067680      -0.000231436
    5 H               -0.000044380      -0.000213275       0.000147846
    6 H               -0.000030125      -0.000002254      -0.000212540
    7 H                0.000048708       0.000225844       0.000065646
    8 H               -0.000021290       0.000017826       0.000030712
    9 H               -0.000005772       0.000024495       0.000011955

 STOPPING BECAUSE GRADIENT IS BELOW -OPTTOL-
 YOUR RUN IS PROBABLY VERY NEAR A PES MINIMUM.
 MAX GRADIENT= 0.000231 RMS GRADIENT= 0.000108


 *******************************************
 ***** END OF CONSTRAINED OPTIMIZATION *****
 *******************************************

 ANGLE BETWEEN GRADIENTS AT CURRENT AND PREVIOUS IRC POINT =   5.878
 ENERGY WAS LOWERED BY      0.0000053084 HARTREE DURING OPTIMIZATION

 ***** NEXT POINT ON IRC FOUND *****
 STEP DISTANCE IS   0.09987 SQRT(AMU)-BOHR)

1         POINT  33 ON THE REACTION PATH
          ******************************
          AT PATH DISTANCE STOTAL =   3.29804     SQRT(AMU)-BOHR
          TOTAL ENERGY            =  -585.8341687 HARTREE
            2 CONSTRAINED OPTIMIZATION STEPS WERE PERFORMED
  
 COORDINATES OF ALL ATOMS ARE (ANGS)
   ATOM   CHARGE       X              Y              Z
 ------------------------------------------------------------
 C           6.0   1.1973708549   0.0042710702  -0.0990169795
 C           6.0   2.6956513702  -0.3987614152  -0.3746167263
 N           7.0   3.2049377897  -0.7632514458   1.0346383246
 CL         17.0   3.5324636708   1.3526332649  -0.6103068850
 H           1.0   1.0294338680   0.6402951920   0.7711039338
 H           1.0   0.6077837947  -0.9007567935   0.0534524264
 H           1.0   0.7728882950   0.5132182234  -0.9610079655
 H           1.0   2.6647075487  -1.6226215771   1.2679167425
 H           1.0   4.1548727462  -1.1587658848   0.8825876819
  

          INTERNUCLEAR DISTANCES (ANGS.)
          ------------------------------

                1 C          2 C          3 N          4 CL         5 H     

   1 C       0.0000000    1.5758283 *  2.4299362 *  2.7444774 *  1.0907978 *
   2 C       1.5758283 *  0.0000000    1.5421496 *  1.9552974 *  2.2734545 *
   3 N       2.4299362 *  1.5421496 *  0.0000000    2.7000159 *  2.6023472 *
   4 CL      2.7444774 *  1.9552974 *  2.7000159 *  0.0000000    2.9463332 *
   5 H       1.0907978 *  2.2734545 *  2.6023472 *  2.9463332 *  0.0000000  
   6 H       1.0908415 *  2.1896195 *  2.7797198 *  3.7512792    1.7514719 *
   7 H       1.0873091 *  2.2073920 *  3.3951206    2.9056609 *  1.7556127 *
   8 H       2.5823177 *  2.0485867 *  1.0415299 *  3.6239296    2.8357954 *
   9 H       3.3261119    2.0706271 *  1.0401574 *  2.9871814 *  3.6079658  

                6 H          7 H          8 H          9 H     

   1 C       1.0908415 *  1.0873091 *  2.5823177 *  3.3261119  
   2 C       2.1896195 *  2.2073920 *  2.0485867 *  2.0706271 *
   3 N       2.7797198 *  3.3951206    1.0415299 *  1.0401574 *
   4 CL      3.7512792    2.9056609 *  3.6239296    2.9871814 *
   5 H       1.7514719 *  1.7556127 *  2.8357954 *  3.6079658  
   6 H       0.0000000    1.7480603 *  2.4953853 *  3.6518316  
   7 H       1.7480603 *  0.0000000    3.6206211    4.1990707  
   8 H       2.4953853 *  3.6206211    0.0000000    1.6075549 *
   9 H       3.6518316    4.1990707    1.6075549 *  0.0000000  

  * ... LESS THAN  3.000


          CURRENT CARTESIAN GRADIENT
          ATOM               DE/DX          DE/DY          DE/DZ
          -----------------------------------------------------------
          C               -0.0000628243  -0.0001604556   0.0000579083
          C               -0.0000236392   0.0000280903   0.0000487076
          N                0.0000202024   0.0001474083   0.0000811999
          CL               0.0001191193  -0.0000676800  -0.0002314357
          H               -0.0000443797  -0.0002132746   0.0001478464
          H               -0.0000301250  -0.0000022541  -0.0002125399
          H                0.0000487076   0.0002258445   0.0000656462
          H               -0.0000212895   0.0000178258   0.0000307122
          H               -0.0000057718   0.0000244954   0.0000119550

 THE NUCLEAR REPULSION AT THE IRC POINT IS      151.7407203818

 * * * IRC RESTART INFORMATION * * *
 COORDINATES FOR $DATA AND ENTIRE $IRC GROUP FOLLOW

 COORDINATES OF SYMMETRY UNIQUE ATOMS (ANGS)
   ATOM   CHARGE       X              Y              Z
 ------------------------------------------------------------
 C           6.0   1.1973708549   0.0042710702  -0.0990169795
 C           6.0   2.6956513702  -0.3987614152  -0.3746167263
 N           7.0   3.2049377897  -0.7632514458   1.0346383246
 CL         17.0   3.5324636708   1.3526332649  -0.6103068850
 H           1.0   1.0294338680   0.6402951920   0.7711039338
 H           1.0   0.6077837947  -0.9007567935   0.0534524264
 H           1.0   0.7728882950   0.5132182234  -0.9610079655
 H           1.0   2.6647075487  -1.6226215771   1.2679167425
 H           1.0   4.1548727462  -1.1587658848   0.8825876819
 $IRC   PACE=GS2        STRIDE= 0.10000   NPOINT=??
        STOTAL=  3.298042   NEXTPT=  34
        NPRT= 0   NPUN= 0   SADDLE=.FALSE.
        GA(   1)=-6.282429457E-05,-1.604555738E-04, 5.790827480E-05
        GA(   4)=-2.363919441E-05, 2.809027587E-05, 4.870757241E-05
        GA(   7)= 2.020241561E-05, 1.474082927E-04, 8.119993581E-05
        GA(  10)= 1.191193360E-04,-6.767995460E-05,-2.314356862E-04
        GA(  13)=-4.437969890E-05,-2.132746292E-04, 1.478464036E-04
        GA(  16)=-3.012502486E-05,-2.254080642E-06,-2.125398600E-04
        GA(  19)= 4.870757679E-05, 2.258444825E-04, 6.564618227E-05
        GA(  22)=-2.128951558E-05, 1.782577953E-05, 3.071224628E-05
        GA(  25)=-5.771778744E-06, 2.449543542E-05, 1.195495662E-05
 $END   
 A GS2 RESTART ALSO REQUIRES THE UPDATED $HESS GROUP FROM THE PUNCH FILE
 ......DONE WITH THIS PORTION OF THE IRC......
 STEP CPU TIME =     0.00 TOTAL CPU TIME =          8.4 (      0.1 MIN)
 TOTAL WALL CLOCK TIME=          9.3 SECONDS, CPU UTILIZATION IS    89.61%
               580000  WORDS OF DYNAMIC MEMORY USED
 EXECUTION OF GAMESS TERMINATED NORMALLY Wed Dec 22 15:07:09 2021
 DDI: 263640 bytes (0.3 MB / 0 MWords) used by master data server.

 ----------------------------------------
 CPU timing information for all processes
 ========================================
 0: 6.485 + 1.893 = 8.379
 ----------------------------------------
 ddikick.x: exited gracefully.
----- accounting info -----
Files used on the master node chemcompute-node-0.novalocal were:
-rw-r--r--. 1 chemcomp chemcomp    12945 Dec 22 15:06 /scratch/331197/369186.F05
-rw-rw-r--. 1 chemcomp chemcomp  1080096 Dec 22 15:07 /scratch/331197/369186.F08
-rw-rw-r--. 1 chemcomp chemcomp 52428800 Dec 22 15:07 /scratch/331197/369186.F10
Wed Dec 22 15:07:12 UTC 2021
0.127u 0.073s 0:13.16 1.4%	0+0k 32+248io 0pf+0w
Finishing Up...
Looking for IR data...
Looking for Raman data...
vibramans not found
Looking for thermodynamics data...
Looking for UV-Vis data...
331197
